 &FCI NORB=  4,NELEC= ,MS0= ,
  ORBSYM=1,2,1,2,1,2,1,2,
  ISYM=1,
 /
  -22.8114767051649955931225122   1   1   0   0
  -19.4859989988642503533355921   2   2   0   0
  -2.0592386482149360737992083   3   1   0   0
  -16.1507420810180128967203927   3   3   0   0
  1.4542837650266942084442690   4   2   0   0
  -15.0122197873187630534630443   4   4   0   0
  7.7312021012   1   1   1   1
  1.8397602137   2   1   2   1
  7.2897220219   2   2   1   1
  7.1844632481   2   2   2   2
  0.7092737898   3   1   1   1
  0.1691068135   3   1   2   2
  0.8678223467   3   1   3   1
  -1.0117600883   3   2   2   1
  1.2379541915   3   2   3   2
  7.2897220219   3   3   1   1
  7.1844632481   3   3   2   2
  0.1691068135   3   3   3   1
  7.1844632481   3   3   3   3
  -0.1333794850   4   1   2   1
  -0.6081946678   4   1   3   2
  0.6912153383   4   1   4   1
  -0.7092737898   4   2   1   1
  -0.1691068135   4   2   2   2
  -0.8678223467   4   2   3   1
  -0.1691068135   4   2   3   3
  0.8678223467   4   2   4   2
  -1.8397602137   4   3   2   1
  1.0117600883   4   3   3   2
  0.1333794850   4   3   4   1
  1.8397602137   4   3   4   3
  7.7312021012   4   4   1   1
  7.2897220219   4   4   2   2
  0.7092737898   4   4   3   1
  7.2897220219   4   4   3   3
  -0.7092737898   4   4   4   2
  7.7312021012   4   4   4   4
  36.7302187861829950   0   0   0   0
