 &FCI NORB= 10,NELEC= ,MS0= ,
  ORBSYM=1,2,3,1,4,2,3,1,4,3,
  ISYM=1,
 /
  -22.7037664629385709247344494   1   1   0   0
  -19.4667980726438933913868823   2   2   0   0
  -19.9769000416806790099144564   3   3   0   0
  -1.4286495640148426655713365   4   1   0   0
  -18.9368941191301232152000011   4   4   0   0
  -17.5881740244662658767538232   5   5   0   0
  -0.5195447454902926143205377   6   2   0   0
  -14.6216156282641343011619028   6   6   0   0
  -1.1190491546865524163933969   7   3   0   0
  -14.1375390136818523956208082   7   7   0   0
  0.5802520948844820392054089   8   1   0   0
  0.9651263919934587320881292   8   4   0   0
  -13.7257970091552792268885241   8   8   0   0
  -0.5266847841661390638989815   9   5   0   0
  -11.7002396764417468943975109   9   9   0   0
  -0.5452337961712473424213954   10   3   0   0
  -1.3313556570455973293576335   10   7   0   0
  -11.6520185358614618564843113   10   10   0   0
  2.7902958198   1   1   1   1
  0.6488805431   2   1   2   1
  2.1949657832   2   2   1   1
  2.6100207878   2   2   2   2
  0.8687114143   3   1   3   1
  0.4219789212   3   2   3   2
  2.6642349850   3   3   1   1
  2.1810460279   3   3   2   2
  2.7229474478   3   3   3   3
  0.5163602130   4   1   1   1
  -0.3335041718   4   1   2   2
  0.3771888664   4   1   3   3
  0.7265165070   4   1   4   1
  -0.7124989951   4   2   2   1
  1.0175100333   4   2   4   2
  0.1895123733   4   3   3   1
  0.3135877068   4   3   4   3
  2.5557334987   4   4   1   1
  2.4733985131   4   4   2   2
  2.2921217238   4   4   3   3
  0.1354783306   4   4   4   1
  2.8011279859   4   4   4   4
  -0.4562018479   5   1   3   2
  0.5051764666   5   1   5   1
  -0.6156523438   5   2   3   1
  0.1387096964   5   2   4   3
  0.7101003661   5   2   5   2
  -0.6889116354   5   3   2   1
  0.5251002745   5   3   4   2
  0.9590277510   5   3   5   3
  0.2019797915   5   4   3   2
  -0.1774988242   5   4   5   1
  0.2360943304   5   4   5   4
  2.3837161630   5   5   1   1
  2.3323283254   5   5   2   2
  2.5653240782   5   5   3   3
  -0.0055219329   5   5   4   1
  2.1462265617   5   5   4   4
  2.6248522849   5   5   5   5
  0.1124660895   6   1   2   1
  0.1862415462   6   1   4   2
  -0.4241326232   6   1   5   3
  0.4274587210   6   1   6   1
  0.1893798712   6   2   1   1
  -0.2786185796   6   2   2   2
  0.3855596354   6   2   3   3
  0.3290760749   6   2   4   1
  -0.3282630850   6   2   4   4
  0.2934995405   6   2   5   5
  0.5740261606   6   2   6   2
  0.3576740325   6   3   3   2
  -0.4527555575   6   3   5   1
  -0.0542380497   6   3   5   4
  0.6677043365   6   3   6   3
  0.4394508378   6   4   2   1
  -0.6290219732   6   4   4   2
  -0.3224433262   6   4   5   3
  -0.1167765178   6   4   6   1
  0.3888665547   6   4   6   4
  -0.6190553112   6   5   3   1
  -0.1327063265   6   5   4   3
  0.4410714011   6   5   5   2
  0.9066930283   6   5   6   5
  2.3837161630   6   6   1   1
  2.3323283254   6   6   2   2
  2.5653240782   6   6   3   3
  -0.0055219329   6   6   4   1
  2.1462265617   6   6   4   4
  2.6248522849   6   6   5   5
  0.2934995405   6   6   6   2
  2.6248522849   6   6   6   6
  0.2557717577   7   1   3   1
  0.4154004102   7   1   4   3
  0.1793574617   7   1   5   2
  -0.1791719156   7   1   6   5
  0.5502983720   7   1   7   1
  -0.3240431381   7   2   3   2
  0.2840623535   7   2   5   1
  -0.3811800982   7   2   5   4
  0.0909062200   7   2   6   3
  0.6154416358   7   2   7   2
  0.3898891095   7   3   1   1
  -0.2526157883   7   3   2   2
  0.2860639826   7   3   3   3
  0.5488911896   7   3   4   1
  0.1003707527   7   3   4   4
  -0.0026641698   7   3   5   5
  0.2507852187   7   3   6   2
  -0.0026641698   7   3   6   6
  0.4147043399   7   3   7   3
  0.6107598569   7   4   3   1
  0.0276875899   7   4   4   3
  -0.5386939534   7   4   5   2
  0.0293819285   7   4   6   5
  0.0404027226   7   4   7   1
  0.9358525342   7   4   7   4
  0.4394508378   7   5   2   1
  -0.6290219732   7   5   4   2
  -0.3224433262   7   5   5   3
  -0.1167765178   7   5   6   1
  0.3888665547   7   5   6   4
  0.3888665547   7   5   7   5
  0.2019797915   7   6   3   2
  -0.1774988242   7   6   5   1
  0.2360943304   7   6   5   4
  -0.0542380497   7   6   6   3
  -0.3811800982   7   6   7   2
  0.2360943304   7   6   7   6
  2.5557334987   7   7   1   1
  2.4733985131   7   7   2   2
  2.2921217238   7   7   3   3
  0.1354783306   7   7   4   1
  2.8011279859   7   7   4   4
  2.1462265617   7   7   5   5
  -0.3282630850   7   7   6   2
  2.1462265617   7   7   6   6
  0.1003707527   7   7   7   3
  2.8011279859   7   7   7   7
  -0.2173812009   8   1   1   1
  -0.0272645411   8   1   2   2
  0.1064027019   8   1   3   3
  -0.2386826715   8   1   4   1
  -0.4624616891   8   1   4   4
  0.3193332564   8   1   5   5
  0.3477537172   8   1   6   2
  0.3193332564   8   1   6   6
  -0.1780053785   8   1   7   3
  -0.4624616891   8   1   7   7
  0.5674197922   8   1   8   1
  -0.0133722185   8   2   2   1
  0.3034266275   8   2   4   2
  -0.2698794457   8   2   5   3
  0.3779999732   8   2   6   1
  -0.1889239486   8   2   6   4
  -0.1889239486   8   2   7   5
  0.3548189455   8   2   8   2
  0.3443980478   8   3   3   1
  -0.0955743869   8   3   4   3
  -0.4152632487   8   3   5   2
  -0.7124174019   8   3   6   5
  -0.1240822171   8   3   7   1
  -0.1572076699   8   3   7   4
  0.7090993449   8   3   8   3
  -0.3898891095   8   4   1   1
  0.2526157883   8   4   2   2
  -0.2860639826   8   4   3   3
  -0.5488911896   8   4   4   1
  -0.1003707527   8   4   4   4
  0.0026641698   8   4   5   5
  -0.2507852187   8   4   6   2
  0.0026641698   8   4   6   6
  -0.4147043399   8   4   7   3
  -0.1003707527   8   4   7   7
  0.1780053785   8   4   8   1
  0.4147043399   8   4   8   4
  -0.3576740325   8   5   3   2
  0.4527555575   8   5   5   1
  0.0542380497   8   5   5   4
  -0.6677043365   8   5   6   3
  -0.0909062200   8   5   7   2
  0.0542380497   8   5   7   6
  0.6677043365   8   5   8   5
  0.6889116354   8   6   2   1
  -0.5251002745   8   6   4   2
  -0.9590277510   8   6   5   3
  0.4241326232   8   6   6   1
  0.3224433262   8   6   6   4
  0.3224433262   8   6   7   5
  0.2698794457   8   6   8   2
  0.9590277510   8   6   8   6
  -0.1895123733   8   7   3   1
  -0.3135877068   8   7   4   3
  -0.1387096964   8   7   5   2
  0.1327063265   8   7   6   5
  -0.4154004102   8   7   7   1
  -0.0276875899   8   7   7   4
  0.0955743869   8   7   8   3
  0.3135877068   8   7   8   7
  2.6642349850   8   8   1   1
  2.1810460279   8   8   2   2
  2.7229474478   8   8   3   3
  0.3771888664   8   8   4   1
  2.2921217238   8   8   4   4
  2.5653240782   8   8   5   5
  0.3855596354   8   8   6   2
  2.5653240782   8   8   6   6
  0.2860639826   8   8   7   3
  2.2921217238   8   8   7   7
  0.1064027019   8   8   8   1
  -0.2860639826   8   8   8   4
  2.7229474478   8   8   8   8
  -0.0181458138   9   1   3   2
  0.0808987609   9   1   5   1
  0.2004013157   9   1   5   4
  -0.3534757900   9   1   6   3
  -0.3251188145   9   1   7   2
  0.2004013157   9   1   7   6
  0.3534757900   9   1   8   5
  0.3143526523   9   1   9   1
  -0.0054493717   9   2   3   1
  -0.2709549573   9   2   4   3
  -0.2666686192   9   2   5   2
  0.4670877313   9   2   6   5
  -0.3579332002   9   2   7   1
  0.5662852843   9   2   7   4
  -0.2985344721   9   2   8   3
  0.2709549573   9   2   8   7
  0.7328699544   9   2   9   2
  0.0133722185   9   3   2   1
  -0.3034266275   9   3   4   2
  0.2698794457   9   3   5   3
  -0.3779999732   9   3   6   1
  0.1889239486   9   3   6   4
  0.1889239486   9   3   7   5
  -0.3548189455   9   3   8   2
  -0.2698794457   9   3   8   6
  0.3548189455   9   3   9   3
  -0.3240431381   9   4   3   2
  0.2840623535   9   4   5   1
  -0.3811800982   9   4   5   4
  0.0909062200   9   4   6   3
  0.6154416358   9   4   7   2
  -0.3811800982   9   4   7   6
  -0.0909062200   9   4   8   5
  -0.3251188145   9   4   9   1
  0.6154416358   9   4   9   4
  0.1893798712   9   5   1   1
  -0.2786185796   9   5   2   2
  0.3855596354   9   5   3   3
  0.3290760749   9   5   4   1
  -0.3282630850   9   5   4   4
  0.2934995405   9   5   5   5
  0.5740261606   9   5   6   2
  0.2934995405   9   5   6   6
  0.2507852187   9   5   7   3
  -0.3282630850   9   5   7   7
  0.3477537172   9   5   8   1
  -0.2507852187   9   5   8   4
  0.3855596354   9   5   8   8
  0.5740261606   9   5   9   5
  -0.6156523438   9   6   3   1
  0.1387096964   9   6   4   3
  0.7101003661   9   6   5   2
  0.4410714011   9   6   6   5
  0.1793574617   9   6   7   1
  -0.5386939534   9   6   7   4
  -0.4152632487   9   6   8   3
  -0.1387096964   9   6   8   7
  -0.2666686192   9   6   9   2
  0.7101003661   9   6   9   6
  -0.7124989951   9   7   2   1
  1.0175100333   9   7   4   2
  0.5251002745   9   7   5   3
  0.1862415462   9   7   6   1
  -0.6290219732   9   7   6   4
  -0.6290219732   9   7   7   5
  0.3034266275   9   7   8   2
  -0.5251002745   9   7   8   6
  -0.3034266275   9   7   9   3
  1.0175100333   9   7   9   7
  -0.4219789212   9   8   3   2
  0.4562018479   9   8   5   1
  -0.2019797915   9   8   5   4
  -0.3576740325   9   8   6   3
  0.3240431381   9   8   7   2
  -0.2019797915   9   8   7   6
  0.3576740325   9   8   8   5
  0.0181458138   9   8   9   1
  0.3240431381   9   8   9   4
  0.4219789212   9   8   9   8
  2.1949657832   9   9   1   1
  2.6100207878   9   9   2   2
  2.1810460279   9   9   3   3
  -0.3335041718   9   9   4   1
  2.4733985131   9   9   4   4
  2.3323283254   9   9   5   5
  -0.2786185796   9   9   6   2
  2.3323283254   9   9   6   6
  -0.2526157883   9   9   7   3
  2.4733985131   9   9   7   7
  -0.0272645411   9   9   8   1
  0.2526157883   9   9   8   4
  2.1810460279   9   9   8   8
  -0.2786185796   9   9   9   5
  2.6100207878   9   9   9   9
  0.1507897251   10   1   3   1
  0.2053088395   10   1   4   3
  0.0660380130   10   1   5   2
  0.3595547007   10   1   6   5
  0.2721341334   10   1   7   1
  0.5046944141   10   1   7   4
  -0.5138543119   10   1   8   3
  -0.2053088395   10   1   8   7
  0.2937361954   10   1   9   2
  0.0660380130   10   1   9   6
  0.6008897118   10   1   10   1
  -0.0181458138   10   2   3   2
  0.0808987609   10   2   5   1
  0.2004013157   10   2   5   4
  -0.3534757900   10   2   6   3
  -0.3251188145   10   2   7   2
  0.2004013157   10   2   7   6
  0.3534757900   10   2   8   5
  0.3143526523   10   2   9   1
  -0.3251188145   10   2   9   4
  0.0181458138   10   2   9   8
  0.3143526523   10   2   10   2
  0.2173812009   10   3   1   1
  0.0272645411   10   3   2   2
  -0.1064027019   10   3   3   3
  0.2386826715   10   3   4   1
  0.4624616891   10   3   4   4
  -0.3193332564   10   3   5   5
  -0.3477537172   10   3   6   2
  -0.3193332564   10   3   6   6
  0.1780053785   10   3   7   3
  0.4624616891   10   3   7   7
  -0.5674197922   10   3   8   1
  -0.1780053785   10   3   8   4
  -0.1064027019   10   3   8   8
  -0.3477537172   10   3   9   5
  0.0272645411   10   3   9   9
  0.5674197922   10   3   10   3
  0.2557717577   10   4   3   1
  0.4154004102   10   4   4   3
  0.1793574617   10   4   5   2
  -0.1791719156   10   4   6   5
  0.5502983720   10   4   7   1
  0.0404027226   10   4   7   4
  -0.1240822171   10   4   8   3
  -0.4154004102   10   4   8   7
  -0.3579332002   10   4   9   2
  0.1793574617   10   4   9   6
  0.2721341334   10   4   10   1
  0.5502983720   10   4   10   4
  0.1124660895   10   5   2   1
  0.1862415462   10   5   4   2
  -0.4241326232   10   5   5   3
  0.4274587210   10   5   6   1
  -0.1167765178   10   5   6   4
  -0.1167765178   10   5   7   5
  0.3779999732   10   5   8   2
  0.4241326232   10   5   8   6
  -0.3779999732   10   5   9   3
  0.1862415462   10   5   9   7
  0.4274587210   10   5   10   5
  -0.4562018479   10   6   3   2
  0.5051764666   10   6   5   1
  -0.1774988242   10   6   5   4
  -0.4527555575   10   6   6   3
  0.2840623535   10   6   7   2
  -0.1774988242   10   6   7   6
  0.4527555575   10   6   8   5
  0.0808987609   10   6   9   1
  0.2840623535   10   6   9   4
  0.4562018479   10   6   9   8
  0.0808987609   10   6   10   2
  0.5051764666   10   6   10   6
  0.5163602130   10   7   1   1
  -0.3335041718   10   7   2   2
  0.3771888664   10   7   3   3
  0.7265165070   10   7   4   1
  0.1354783306   10   7   4   4
  -0.0055219329   10   7   5   5
  0.3290760749   10   7   6   2
  -0.0055219329   10   7   6   6
  0.5488911896   10   7   7   3
  0.1354783306   10   7   7   7
  -0.2386826715   10   7   8   1
  -0.5488911896   10   7   8   4
  0.3771888664   10   7   8   8
  0.3290760749   10   7   9   5
  -0.3335041718   10   7   9   9
  0.2386826715   10   7   10   3
  0.7265165070   10   7   10   7
  -0.8687114143   10   8   3   1
  -0.1895123733   10   8   4   3
  0.6156523438   10   8   5   2
  0.6190553112   10   8   6   5
  -0.2557717577   10   8   7   1
  -0.6107598569   10   8   7   4
  -0.3443980478   10   8   8   3
  0.1895123733   10   8   8   7
  0.0054493717   10   8   9   2
  0.6156523438   10   8   9   6
  -0.1507897251   10   8   10   1
  -0.2557717577   10   8   10   4
  0.8687114143   10   8   10   8
  0.6488805431   10   9   2   1
  -0.7124989951   10   9   4   2
  -0.6889116354   10   9   5   3
  0.1124660895   10   9   6   1
  0.4394508378   10   9   6   4
  0.4394508378   10   9   7   5
  -0.0133722185   10   9   8   2
  0.6889116354   10   9   8   6
  0.0133722185   10   9   9   3
  -0.7124989951   10   9   9   7
  0.1124660895   10   9   10   5
  0.6488805431   10   9   10   9
  2.7902958198   10   10   1   1
  2.1949657832   10   10   2   2
  2.6642349850   10   10   3   3
  0.5163602130   10   10   4   1
  2.5557334987   10   10   4   4
  2.3837161630   10   10   5   5
  0.1893798712   10   10   6   2
  2.3837161630   10   10   6   6
  0.3898891095   10   10   7   3
  2.5557334987   10   10   7   7
  -0.2173812009   10   10   8   1
  -0.3898891095   10   10   8   4
  2.6642349850   10   10   8   8
  0.1893798712   10   10   9   5
  2.1949657832   10   10   9   9
  0.2173812009   10   10   10   3
  0.5163602130   10   10   10   7
  2.7902958198   10   10   10   10
  82.2548712921320231   0   0   0   0
