 &FCI NORB=  8,NELEC= ,MS0= ,
  ORBSYM=1,2,1,2,1,2,1,2,
  ISYM=1,
 /
  -38.0120093599102872872208536   1   1   0   0
  -34.3590227579846185790302115   2   2   0   0
  2.7863680157663526237854512   3   1   0   0
  -32.2783347657451784584736743   3   3   0   0
  -3.2605727076628894245402535   4   2   0   0
  -32.7581566156044274862324528   4   4   0   0
  0.5076131527934308884653092   5   1   0   0
  3.1223460628604473576785949   5   3   0   0
  -30.7221366099420301054578886   5   5   0   0
  -1.7001487024506340972607177   6   2   0   0
  2.3966079319152968629680345   6   4   0   0
  -27.4398506512457593942144740   6   6   0   0
  -0.6785884679364977412063809   7   1   0   0
  -1.0852313269723903310648438   7   3   0   0
  -3.1048666021309654361459707   7   5   0   0
  -26.9975268892919189056556206   7   7   0   0
  0.3387517744939536612491793   8   2   0   0
  -0.3793383529417371224923272   8   4   0   0
  -2.7127866600529988438950113   8   6   0   0
  -28.9889776000545751344361634   8   8   0   0
  6.2124965644   1   1   1   1
  1.7102662956   2   1   2   1
  5.2562671101   2   2   1   1
  5.3382573018   2   2   2   2
  -0.9308430722   3   1   1   1
  0.0763848880   3   1   2   2
  0.9780960703   3   1   3   1
  1.1872904552   3   2   2   1
  1.4964402253   3   2   3   2
  5.1243858702   3   3   1   1
  5.1377054189   3   3   2   2
  0.0198738597   3   3   3   1
  5.1647233392   3   3   3   3
  0.5098498776   4   1   2   1
  -0.2914967443   4   1   3   2
  0.7767170626   4   1   4   1
  0.9671670109   4   2   1   1
  0.0862971336   4   2   2   2
  -0.8651588780   4   2   3   1
  -0.0547325549   4   2   3   3
  0.9304932542   4   2   4   2
  -1.4839958765   4   3   2   1
  -1.2666282075   4   3   3   2
  -0.2395303142   4   3   4   1
  1.4877426959   4   3   4   3
  5.7220971952   4   4   1   1
  5.1719075809   4   4   2   2
  -0.5402043445   4   4   3   1
  5.0677317259   4   4   3   3
  0.5926282379   4   4   4   2
  5.4733368044   4   4   4   4
  0.0330502600   5   1   1   1
  -0.2758521191   5   1   2   2
  -0.2845016869   5   1   3   1
  0.0501282155   5   1   3   3
  -0.0152703643   5   1   4   2
  -0.0290642329   5   1   4   4
  0.5142199914   5   1   5   1
  -0.4835477532   5   2   2   1
  -0.0426046032   5   2   3   2
  -0.3900399406   5   2   4   1
  0.1444178131   5   2   4   3
  0.5177286776   5   2   5   2
  -0.7683900975   5   3   1   1
  -0.1271515299   5   3   2   2
  0.6148273759   5   3   3   1
  -0.1052977917   5   3   3   3
  -0.5683547636   5   3   4   2
  -0.3788990796   5   3   4   4
  -0.1311563884   5   3   5   1
  0.6322254951   5   3   5   3
  -0.8647042991   5   4   2   1
  -0.7618620980   5   4   3   2
  -0.1001930408   5   4   4   1
  0.7952793089   5   4   4   3
  0.1914719784   5   4   5   2
  0.7975360189   5   4   5   4
  5.7220971952   5   5   1   1
  5.1719075809   5   5   2   2
  -0.5402043445   5   5   3   1
  5.0677317259   5   5   3   3
  0.5926282379   5   5   4   2
  5.4733368044   5   5   4   4
  -0.0290642329   5   5   5   1
  -0.3788990796   5   5   5   3
  5.4733368044   5   5   5   5
  0.1263749704   6   1   2   1
  0.1830765583   6   1   3   2
  -0.0901557745   6   1   4   1
  0.0325622504   6   1   4   3
  -0.2527960605   6   1   5   2
  -0.1046215150   6   1   5   4
  0.2870181222   6   1   6   1
  0.2008646285   6   2   1   1
  0.3322113332   6   2   2   2
  0.1257172105   6   2   3   1
  0.0818399555   6   2   3   3
  0.0744418242   6   2   4   2
  0.0814290902   6   2   4   4
  -0.3443853878   6   2   5   1
  -0.1861647198   6   2   5   3
  0.0814290902   6   2   5   5
  0.4579922149   6   2   6   2
  0.2248485382   6   3   2   1
  -0.1976950719   6   3   3   2
  0.3855904663   6   3   4   1
  0.0317378026   6   3   4   3
  -0.3685299481   6   3   5   2
  0.2812850236   6   3   5   4
  0.1203571336   6   3   6   1
  0.6257618371   6   3   6   3
  -0.7683900975   6   4   1   1
  -0.1271515299   6   4   2   2
  0.6148273759   6   4   3   1
  -0.1052977917   6   4   3   3
  -0.5683547636   6   4   4   2
  -0.3788990796   6   4   4   4
  -0.1311563884   6   4   5   1
  0.6322254951   6   4   5   3
  -0.3788990796   6   4   5   5
  -0.1861647198   6   4   6   2
  0.6322254951   6   4   6   4
  -1.4839958765   6   5   2   1
  -1.2666282075   6   5   3   2
  -0.2395303142   6   5   4   1
  1.4877426959   6   5   4   3
  0.1444178131   6   5   5   2
  0.7952793089   6   5   5   4
  0.0325622504   6   5   6   1
  0.0317378026   6   5   6   3
  1.4877426959   6   5   6   5
  5.1243858702   6   6   1   1
  5.1377054189   6   6   2   2
  0.0198738597   6   6   3   1
  5.1647233392   6   6   3   3
  -0.0547325549   6   6   4   2
  5.0677317259   6   6   4   4
  0.0501282155   6   6   5   1
  -0.1052977917   6   6   5   3
  5.0677317259   6   6   5   5
  0.0818399555   6   6   6   2
  -0.1052977917   6   6   6   4
  5.1647233392   6   6   6   6
  0.0979467557   7   1   1   1
  0.0490486405   7   1   2   2
  -0.0331863162   7   1   3   1
  0.1350709136   7   1   3   3
  -0.0666470269   7   1   4   2
  -0.0277312493   7   1   4   4
  0.1572658202   7   1   5   1
  -0.2307669598   7   1   5   3
  -0.0277312493   7   1   5   5
  0.1078899309   7   1   6   2
  -0.2307669598   7   1   6   4
  0.1350709136   7   1   6   6
  0.2644313696   7   1   7   1
  -0.0035454449   7   2   2   1
  0.1143920795   7   2   3   2
  -0.1324292471   7   2   4   1
  0.0548501900   7   2   4   3
  -0.0847201203   7   2   5   2
  0.2846027895   7   2   5   4
  0.1558998170   7   2   6   1
  0.3396786985   7   2   6   3
  0.0548501900   7   2   6   5
  0.4143906610   7   2   7   2
  0.2008646285   7   3   1   1
  0.3322113332   7   3   2   2
  0.1257172105   7   3   3   1
  0.0818399555   7   3   3   3
  0.0744418242   7   3   4   2
  0.0814290902   7   3   4   4
  -0.3443853878   7   3   5   1
  -0.1861647198   7   3   5   3
  0.0814290902   7   3   5   5
  0.4579922149   7   3   6   2
  -0.1861647198   7   3   6   4
  0.0818399555   7   3   6   6
  0.1078899309   7   3   7   1
  0.4579922149   7   3   7   3
  -0.4835477532   7   4   2   1
  -0.0426046032   7   4   3   2
  -0.3900399406   7   4   4   1
  0.1444178131   7   4   4   3
  0.5177286776   7   4   5   2
  0.1914719784   7   4   5   4
  -0.2527960605   7   4   6   1
  -0.3685299481   7   4   6   3
  0.1444178131   7   4   6   5
  -0.0847201203   7   4   7   2
  0.5177286776   7   4   7   4
  0.9671670109   7   5   1   1
  0.0862971336   7   5   2   2
  -0.8651588780   7   5   3   1
  -0.0547325549   7   5   3   3
  0.9304932542   7   5   4   2
  0.5926282379   7   5   4   4
  -0.0152703643   7   5   5   1
  -0.5683547636   7   5   5   3
  0.5926282379   7   5   5   5
  0.0744418242   7   5   6   2
  -0.5683547636   7   5   6   4
  -0.0547325549   7   5   6   6
  -0.0666470269   7   5   7   1
  0.0744418242   7   5   7   3
  0.9304932542   7   5   7   5
  1.1872904552   7   6   2   1
  1.4964402253   7   6   3   2
  -0.2914967443   7   6   4   1
  -1.2666282075   7   6   4   3
  -0.0426046032   7   6   5   2
  -0.7618620980   7   6   5   4
  0.1830765583   7   6   6   1
  -0.1976950719   7   6   6   3
  -1.2666282075   7   6   6   5
  0.1143920795   7   6   7   2
  -0.0426046032   7   6   7   4
  1.4964402253   7   6   7   6
  5.2562671101   7   7   1   1
  5.3382573018   7   7   2   2
  0.0763848880   7   7   3   1
  5.1377054189   7   7   3   3
  0.0862971336   7   7   4   2
  5.1719075809   7   7   4   4
  -0.2758521191   7   7   5   1
  -0.1271515299   7   7   5   3
  5.1719075809   7   7   5   5
  0.3322113332   7   7   6   2
  -0.1271515299   7   7   6   4
  5.1377054189   7   7   6   6
  0.0490486405   7   7   7   1
  0.3322113332   7   7   7   3
  0.0862971336   7   7   7   5
  5.3382573018   7   7   7   7
  0.0469334152   8   1   2   1
  0.0273642845   8   1   3   2
  0.0009878325   8   1   4   1
  0.0483713514   8   1   4   3
  -0.1439573183   8   1   5   2
  -0.3516259401   8   1   5   4
  0.1338816046   8   1   6   1
  -0.2349687757   8   1   6   3
  0.0483713514   8   1   6   5
  -0.2520073831   8   1   7   2
  -0.1439573183   8   1   7   4
  0.0273642845   8   1   7   6
  0.3867545238   8   1   8   1
  -0.0979467557   8   2   1   1
  -0.0490486405   8   2   2   2
  0.0331863162   8   2   3   1
  -0.1350709136   8   2   3   3
  0.0666470269   8   2   4   2
  0.0277312493   8   2   4   4
  -0.1572658202   8   2   5   1
  0.2307669598   8   2   5   3
  0.0277312493   8   2   5   5
  -0.1078899309   8   2   6   2
  0.2307669598   8   2   6   4
  -0.1350709136   8   2   6   6
  -0.2644313696   8   2   7   1
  -0.1078899309   8   2   7   3
  0.0666470269   8   2   7   5
  -0.0490486405   8   2   7   7
  0.2644313696   8   2   8   2
  -0.1263749704   8   3   2   1
  -0.1830765583   8   3   3   2
  0.0901557745   8   3   4   1
  -0.0325622504   8   3   4   3
  0.2527960605   8   3   5   2
  0.1046215150   8   3   5   4
  -0.2870181222   8   3   6   1
  -0.1203571336   8   3   6   3
  -0.0325622504   8   3   6   5
  -0.1558998170   8   3   7   2
  0.2527960605   8   3   7   4
  -0.1830765583   8   3   7   6
  -0.1338816046   8   3   8   1
  0.2870181222   8   3   8   3
  -0.0330502600   8   4   1   1
  0.2758521191   8   4   2   2
  0.2845016869   8   4   3   1
  -0.0501282155   8   4   3   3
  0.0152703643   8   4   4   2
  0.0290642329   8   4   4   4
  -0.5142199914   8   4   5   1
  0.1311563884   8   4   5   3
  0.0290642329   8   4   5   5
  0.3443853878   8   4   6   2
  0.1311563884   8   4   6   4
  -0.0501282155   8   4   6   6
  -0.1572658202   8   4   7   1
  0.3443853878   8   4   7   3
  0.0152703643   8   4   7   5
  0.2758521191   8   4   7   7
  0.1572658202   8   4   8   2
  0.5142199914   8   4   8   4
  -0.5098498776   8   5   2   1
  0.2914967443   8   5   3   2
  -0.7767170626   8   5   4   1
  0.2395303142   8   5   4   3
  0.3900399406   8   5   5   2
  0.1001930408   8   5   5   4
  0.0901557745   8   5   6   1
  -0.3855904663   8   5   6   3
  0.2395303142   8   5   6   5
  0.1324292471   8   5   7   2
  0.3900399406   8   5   7   4
  0.2914967443   8   5   7   6
  -0.0009878325   8   5   8   1
  -0.0901557745   8   5   8   3
  0.7767170626   8   5   8   5
  0.9308430722   8   6   1   1
  -0.0763848880   8   6   2   2
  -0.9780960703   8   6   3   1
  -0.0198738597   8   6   3   3
  0.8651588780   8   6   4   2
  0.5402043445   8   6   4   4
  0.2845016869   8   6   5   1
  -0.6148273759   8   6   5   3
  0.5402043445   8   6   5   5
  -0.1257172105   8   6   6   2
  -0.6148273759   8   6   6   4
  -0.0198738597   8   6   6   6
  0.0331863162   8   6   7   1
  -0.1257172105   8   6   7   3
  0.8651588780   8   6   7   5
  -0.0763848880   8   6   7   7
  -0.0331863162   8   6   8   2
  -0.2845016869   8   6   8   4
  0.9780960703   8   6   8   6
  -1.7102662956   8   7   2   1
  -1.1872904552   8   7   3   2
  -0.5098498776   8   7   4   1
  1.4839958765   8   7   4   3
  0.4835477532   8   7   5   2
  0.8647042991   8   7   5   4
  -0.1263749704   8   7   6   1
  -0.2248485382   8   7   6   3
  1.4839958765   8   7   6   5
  0.0035454449   8   7   7   2
  0.4835477532   8   7   7   4
  -1.1872904552   8   7   7   6
  -0.0469334152   8   7   8   1
  0.1263749704   8   7   8   3
  0.5098498776   8   7   8   5
  1.7102662956   8   7   8   7
  6.2124965644   8   8   1   1
  5.2562671101   8   8   2   2
  -0.9308430722   8   8   3   1
  5.1243858702   8   8   3   3
  0.9671670109   8   8   4   2
  5.7220971952   8   8   4   4
  0.0330502600   8   8   5   1
  -0.7683900975   8   8   5   3
  5.7220971952   8   8   5   5
  0.2008646285   8   8   6   2
  -0.7683900975   8   8   6   4
  5.1243858702   8   8   6   6
  0.0979467557   8   8   7   1
  0.2008646285   8   8   7   3
  0.9671670109   8   8   7   5
  5.2562671101   8   8   7   7
  -0.0979467557   8   8   8   2
  -0.0330502600   8   8   8   4
  0.9308430722   8   8   8   6
  6.2124965644   8   8   8   8
  125.7780076248893124   0   0   0   0
