 &FCI NORB= 14,NELEC= ,MS0= ,
  ORBSYM=1,2,1,2,1,2,1,2,1,2,1,2,1,2,
  ISYM=1,
 /
  -50.9819063924484225935884751   1   1   0   0
  -47.7952787143798545343997830   2   2   0   0
  2.8729093816653179516151795   3   1   0   0
  -46.2516031754092296068847645   3   3   0   0
  3.8923712384970476918510940   4   2   0   0
  -45.0252491144800828237748647   4   4   0   0
  0.9749911428628558196507470   5   1   0   0
  4.3881613922310176434393725   5   3   0   0
  -43.8951906466405930018481740   5   5   0   0
  -1.3546462487169397270747595   6   2   0   0
  -4.5494675591127426983462101   6   4   0   0
  -43.2023868672867479290289339   6   6   0   0
  0.3121082603325437410113352   7   1   0   0
  1.2233770071109109078832944   7   3   0   0
  3.8963761927765432346859598   7   5   0   0
  -45.4274181239140730781400634   7   7   0   0
  -0.3196674022596809328078393   8   2   0   0
  -0.9213826139794414338268780   8   4   0   0
  3.0713774371442550403799032   8   6   0   0
  -44.0498896560033728064809111   8   8   0   0
  0.2067847803200004719315075   9   1   0   0
  0.7963574681706748759069114   9   3   0   0
  2.5362903842689821232170289   9   5   0   0
  2.4112522048194149348887549   9   7   0   0
  -40.2078451469419988484332862   9   9   0   0
  -0.4831965206757298236794895   10   2   0   0
  -1.6667923978953940178371340   10   4   0   0
  1.7787003111893637807838786   10   6   0   0
  3.7577727855971212456154262   10   8   0   0
  -39.1149757908040811571481754   10   10   0   0
  0.2179134352179418199213501   11   1   0   0
  1.0315391336015315992824526   11   3   0   0
  0.9998353452169639332680617   11   5   0   0
  0.7331252743306146957280589   11   7   0   0
  4.4129688319327584622442373   11   9   0   0
  -38.6159059718674484429357108   11   11   0   0
  -0.6044627750071073224447105   12   2   0   0
  -0.5115896201234817475267391   12   4   0   0
  0.5877255306678537127851314   12   6   0   0
  1.1537826629843082049120540   12   8   0   0
  4.2981081820974731400042401   12   10   0   0
  -38.4911867543983632344861689   12   12   0   0
  -0.3005724920922115961374743   13   1   0   0
  -0.2450113979680116349513241   13   3   0   0
  -0.3221866864423317267096536   13   5   0   0
  -0.2473738886079069887458104   13   7   0   0
  -1.2956215654146268079216497   13   9   0   0
  -3.8453263901734913154939477   13   11   0   0
  -39.0271124216162021980380814   13   13   0   0
  -0.1048684411923852533021773   14   2   0   0
  -0.1286406586733251922183285   14   4   0   0
  0.1497492938335219792023167   14   6   0   0
  0.2912010421815234284537155   14   8   0   0
  0.9478020820879371477474251   14   10   0   0
  2.8558887506822512314386131   14   12   0   0
  -41.5920149814855193426410551   14   14   0   0
  4.8317966299   1   1   1   1
  1.6338414432   2   1   2   1
  3.9594626894   2   2   1   1
  4.2014917019   2   2   2   2
  -0.8684787147   3   1   1   1
  0.2404338778   3   1   2   2
  1.1035014830   3   1   3   1
  1.0798553854   3   2   2   1
  1.3117079070   3   2   3   2
  3.9218358863   3   3   1   1
  3.7882029523   3   3   2   2
  -0.1329380031   3   3   3   1
  3.9471043160   3   3   3   3
  -0.5545958092   4   1   2   1
  0.2238698618   4   1   3   2
  0.7712835253   4   1   4   1
  -0.8959943552   4   2   1   1
  -0.1741076032   4   2   2   2
  0.7188305753   4   2   3   1
  0.0259876837   4   2   3   3
  0.9090779758   4   2   4   2
  1.0610377374   4   3   2   1
  1.0214073337   4   3   3   2
  -0.0432031258   4   3   4   1
  1.1530790597   4   3   4   3
  3.8900908789   4   4   1   1
  3.7582018114   4   4   2   2
  -0.1313410913   4   4   3   1
  3.7040638226   4   4   3   3
  -0.1835994835   4   4   4   2
  3.8871685613   4   4   4   4
  -0.0196610905   5   1   1   1
  -0.4075462659   5   1   2   2
  -0.3855819283   5   1   3   1
  0.1543409780   5   1   3   3
  0.1778954678   5   1   4   2
  -0.0496322631   5   1   4   4
  0.5528578957   5   1   5   1
  -0.5678129694   5   2   2   1
  -0.0769387742   5   2   3   2
  0.4883373076   5   2   4   1
  0.0798076170   5   2   4   3
  0.6318600388   5   2   5   2
  -0.9091763738   5   3   1   1
  -0.2039378709   5   3   2   2
  0.7021477794   5   3   3   1
  -0.2156697849   5   3   3   3
  0.6826815530   5   3   4   2
  0.0042215917   5   3   4   4
  -0.0245089455   5   3   5   1
  0.8895449514   5   3   5   3
  1.0411169929   5   4   2   1
  0.9949984097   5   4   3   2
  -0.0497456629   5   4   4   1
  1.0712779373   5   4   4   3
  0.0246260681   5   4   5   2
  1.1352653905   5   4   5   4
  3.8467497147   5   5   1   1
  3.7100134476   5   5   2   2
  -0.1361237727   5   5   3   1
  3.7882920866   5   5   3   3
  -0.0557067552   5   5   4   2
  3.7055160517   5   5   4   4
  0.0833680533   5   5   5   1
  -0.1360579194   5   5   5   3
  3.7919460107   5   5   5   5
  0.0029344971   6   1   2   1
  0.2892081690   6   1   3   2
  0.2820109814   6   1   4   1
  -0.1161598679   6   1   4   3
  -0.1267144273   6   1   5   2
  -0.0837054856   6   1   5   4
  0.3944922762   6   1   6   1
  0.0212831591   6   2   1   1
  0.4156823707   6   2   2   2
  0.3922701290   6   2   3   1
  0.0903030955   6   2   3   3
  0.0632010164   6   2   4   2
  -0.1463869674   6   2   4   4
  -0.3266812648   6   2   5   1
  -0.1788376475   6   2   5   3
  -0.0030239435   6   2   5   5
  0.5578987619   6   2   6   2
  0.5750290971   6   3   2   1
  0.1168274543   6   3   3   2
  -0.4560715463   6   3   4   1
  0.0035263807   6   3   4   3
  -0.5632205462   6   3   5   2
  -0.0759574976   6   3   5   4
  0.1049685921   6   3   6   1
  0.6204394128   6   3   6   3
  0.9154505747   6   4   1   1
  0.2509501817   6   4   2   2
  -0.6617054655   6   4   3   1
  0.1163187961   6   4   3   3
  -0.7892197500   6   4   4   2
  0.1734635263   6   4   4   4
  -0.1224217452   6   4   5   1
  -0.7174728538   6   4   5   3
  0.0430704791   6   4   5   5
  0.0383982170   6   4   6   2
  0.8206647305   6   4   6   4
  -0.9940828234   6   5   2   1
  -1.1491610111   6   5   3   2
  -0.1505162358   6   5   4   1
  -1.0399059974   6   5   4   3
  -0.0317766698   6   5   5   2
  -1.0252676009   6   5   5   4
  -0.1216398840   6   5   6   1
  0.0055165491   6   5   6   3
  1.1539469632   6   5   6   5
  3.7617017486   6   6   1   1
  3.9335378144   6   6   2   2
  0.1712922414   6   6   3   1
  3.7402480590   6   6   3   3
  -0.0233339522   6   6   4   2
  3.7025808952   6   6   4   4
  -0.1952690250   6   6   5   1
  -0.0615180624   6   6   5   3
  3.6815264758   6   6   5   5
  0.2277189378   6   6   6   2
  0.0814930739   6   6   6   4
  3.8438859689   6   6   6   6
  -0.0045680077   7   1   1   1
  0.0003067321   7   1   2   2
  0.0047023419   7   1   3   1
  -0.2248356405   7   1   3   3
  -0.2188864508   7   1   4   2
  0.1997276967   7   1   4   4
  -0.2171807695   7   1   5   1
  0.2091401890   7   1   5   3
  -0.0896920646   7   1   5   5
  -0.2229961577   7   1   6   2
  0.0902701702   7   1   6   4
  -0.0211762642   7   1   6   6
  0.4293543550   7   1   7   1
  0.0017241612   7   2   2   1
  -0.2926985294   7   2   3   2
  -0.2905390338   7   2   4   1
  0.0542330139   7   2   4   3
  0.0648320551   7   2   5   2
  0.1257950371   7   2   5   4
  -0.3549442343   7   2   6   1
  -0.1393097218   7   2   6   3
  0.1390606068   7   2   6   5
  0.3929125283   7   2   7   2
  -0.0111619325   7   3   1   1
  -0.4167123553   7   3   2   2
  -0.4034049222   7   3   3   1
  0.0429712878   7   3   3   3
  0.0599464838   7   3   4   2
  -0.0332960026   7   3   4   4
  0.4607191025   7   3   5   1
  -0.0132504623   7   3   5   3
  0.0997119118   7   3   5   5
  -0.3695305753   7   3   6   2
  -0.1278316405   7   3   6   4
  -0.2282674033   7   3   6   6
  -0.1071846986   7   3   7   1
  0.4786898227   7   3   7   3
  -0.5849630841   7   4   2   1
  0.0534032687   7   4   3   2
  0.6353276331   7   4   4   1
  -0.0510008398   7   4   4   3
  0.5183679604   7   4   5   2
  -0.0490681702   7   4   5   4
  0.1287596539   7   4   6   1
  -0.5006606356   7   4   6   3
  -0.1210427603   7   4   6   5
  -0.1486061124   7   4   7   2
  0.6319938500   7   4   7   4
  -0.9201503367   7   5   1   1
  0.0106366837   7   5   2   2
  0.9270387665   7   5   3   1
  -0.1529142898   7   5   3   3
  0.7536730506   7   5   4   2
  -0.1582628078   7   5   4   4
  -0.1808105005   7   5   5   1
  0.7321873680   7   5   5   3
  -0.1419115458   7   5   5   5
  0.2068913786   7   5   6   2
  -0.7180887876   7   5   6   4
  0.0934078160   7   5   6   6
  -0.0130616759   7   5   7   1
  -0.2175193482   7   5   7   3
  0.8978443647   7   5   7   5
  -1.4273345773   7   6   2   1
  -1.1308272733   7   6   3   2
  0.3004508558   7   6   4   1
  -1.0970294996   7   6   4   3
  0.3364876550   7   6   5   2
  -1.0808760683   7   6   5   4
  -0.0272249812   7   6   6   1
  -0.3538290578   7   6   6   3
  1.0702227878   7   6   6   5
  0.0283208107   7   6   7   2
  0.3533233448   7   6   7   4
  1.3664085022   7   6   7   6
  4.4968427957   7   7   1   1
  3.9196873670   7   7   2   2
  -0.5750440705   7   7   3   1
  3.8609503597   7   7   3   3
  -0.6276699416   7   7   4   2
  3.8276667505   7   7   4   4
  -0.0462986930   7   7   5   1
  -0.6494289739   7   7   5   3
  3.7934978223   7   7   5   5
  0.0569903014   7   7   6   2
  0.6598624658   7   7   6   4
  3.7540770418   7   7   6   6
  -0.0105897774   7   7   7   1
  -0.0475354234   7   7   7   3
  -0.6443427642   7   7   7   5
  4.2816048080   7   7   7   7
  -0.0018414313   8   1   2   1
  -0.0296842061   8   1   3   2
  -0.0267018394   8   1   4   1
  0.1435497015   8   1   4   3
  0.1369498880   8   1   5   2
  -0.0684704253   8   1   5   4
  -0.1353098238   8   1   6   1
  0.0581018330   8   1   6   3
  -0.0123648439   8   1   6   5
  -0.0233353234   8   1   7   2
  0.0095354599   8   1   7   4
  -0.0042789854   8   1   7   6
  0.3336087345   8   1   8   1
  -0.0009439874   8   2   1   1
  -0.0409443825   8   2   2   2
  -0.0394652758   8   2   3   1
  0.1831826714   8   2   3   3
  0.1819039359   8   2   4   2
  -0.0085226167   8   2   4   4
  0.2085307460   8   2   5   1
  -0.0114842140   8   2   5   3
  -0.0146371951   8   2   5   5
  -0.0045570915   8   2   6   2
  0.0071007625   8   2   6   4
  0.0169170082   8   2   6   6
  -0.1653497897   8   2   7   1
  0.0353671431   8   2   7   3
  0.0116243604   8   2   7   5
  0.0067088248   8   2   7   7
  0.2841192545   8   2   8   2
  -0.0514947246   8   3   2   1
  0.2474660771   8   3   3   2
  0.2923775541   8   3   4   1
  -0.0096633679   8   3   4   3
  0.0298938526   8   3   5   2
  0.0002730381   8   3   5   4
  0.2420291546   8   3   6   1
  -0.0266734993   8   3   6   3
  -0.0436008532   8   3   6   5
  -0.2110287640   8   3   7   2
  0.0923937395   8   3   7   4
  -0.0115033973   8   3   7   6
  -0.0848539107   8   3   8   1
  0.3191329400   8   3   8   3
  -0.0590508022   8   4   1   1
  0.3352049329   8   4   2   2
  0.3912128585   8   4   3   1
  -0.0042400447   8   4   3   3
  0.0485851536   8   4   4   2
  0.0198883484   8   4   4   4
  -0.3323287966   8   4   5   1
  0.0674229709   8   4   5   3
  0.0000046270   8   4   5   5
  0.2915618398   8   4   6   2
  -0.0344971067   8   4   6   4
  0.1168643879   8   4   6   6
  0.0348186537   8   4   7   1
  -0.2885899068   8   4   7   3
  0.1645524775   8   4   7   5
  0.0049555227   8   4   7   7
  -0.1050460534   8   4   8   2
  0.3702371035   8   4   8   4
  0.5014725744   8   5   2   1
  0.0552467864   8   5   3   2
  -0.4406843300   8   5   4   1
  0.0908135217   8   5   4   3
  -0.3924954375   8   5   5   2
  0.0858428957   8   5   5   4
  -0.0491152721   8   5   6   1
  0.3747810106   8   5   6   3
  -0.0318114466   8   5   6   5
  0.0568724109   8   5   7   2
  -0.3889128656   8   5   7   4
  -0.2603105020   8   5   7   6
  -0.0067451056   8   5   8   1
  -0.1289715568   8   5   8   3
  0.4245203849   8   5   8   5
  -0.6094394423   8   6   1   1
  -0.0486989105   8   6   2   2
  0.5571390557   8   6   3   1
  -0.1086059970   8   6   3   3
  0.4894303364   8   6   4   2
  -0.1127678887   8   6   4   4
  -0.0692832356   8   6   5   1
  0.4715446290   8   6   5   3
  -0.0985622251   8   6   5   5
  0.0854587756   8   6   6   2
  -0.4597383415   8   6   6   4
  -0.0130318384   8   6   6   6
  -0.0107529445   8   6   7   1
  -0.0855181414   8   6   7   3
  0.4988538407   8   6   7   5
  -0.3795511086   8   6   7   7
  0.0105744923   8   6   8   2
  0.1552989200   8   6   8   4
  0.4488172853   8   6   8   6
  -0.6317935063   8   7   2   1
  -0.5376488772   8   7   3   2
  0.0948878997   8   7   4   1
  -0.5179980772   8   7   4   3
  0.1140330027   8   7   5   2
  -0.5080581427   8   7   5   4
  -0.0163288170   8   7   6   1
  -0.1212449583   8   7   6   3
  0.5028983189   8   7   6   5
  0.0176246167   8   7   7   2
  0.1143403196   8   7   7   4
  0.5759483582   8   7   7   6
  -0.0026913328   8   7   8   1
  -0.0110294755   8   7   8   3
  -0.1663596693   8   7   8   5
  0.4707560664   8   7   8   7
  4.4968427957   8   8   1   1
  3.9196873670   8   8   2   2
  -0.5750440705   8   8   3   1
  3.8609503597   8   8   3   3
  -0.6276699416   8   8   4   2
  3.8276667505   8   8   4   4
  -0.0462986930   8   8   5   1
  -0.6494289739   8   8   5   3
  3.7934978223   8   8   5   5
  0.0569903014   8   8   6   2
  0.6598624658   8   8   6   4
  3.7540770418   8   8   6   6
  -0.0105897774   8   8   7   1
  -0.0475354234   8   8   7   3
  -0.6443427642   8   8   7   5
  4.2816048080   8   8   7   7
  0.0067088248   8   8   8   2
  0.0049555227   8   8   8   4
  -0.3795511086   8   8   8   6
  4.2816048080   8   8   8   8
  0.0005090534   9   1   1   1
  0.0206685772   9   1   2   2
  0.0198346022   9   1   3   1
  -0.0632159819   9   1   3   3
  -0.0621178755   9   1   4   2
  -0.0859781007   9   1   4   4
  -0.0733341363   9   1   5   1
  -0.0848341435   9   1   5   3
  0.0576728707   9   1   5   5
  0.0927446953   9   1   6   2
  -0.0540910200   9   1   6   4
  -0.0141108350   9   1   6   6
  -0.0502667779   9   1   7   1
  0.0347925089   9   1   7   3
  -0.0107939997   9   1   7   5
  -0.0046791022   9   1   7   7
  -0.1820690749   9   1   8   2
  0.0679659613   9   1   8   4
  -0.0074268410   9   1   8   6
  -0.0046791022   9   1   8   8
  0.1905816522   9   1   9   1
  0.0273848224   9   2   2   1
  -0.0763167723   9   2   3   2
  -0.1004166692   9   2   4   1
  -0.1459519835   9   2   4   3
  -0.1603760255   9   2   5   2
  0.0090937415   9   2   5   4
  0.0532108263   9   2   6   1
  0.0107307432   9   2   6   3
  -0.0123762694   9   2   6   5
  0.0466565713   9   2   7   2
  -0.0080817895   9   2   7   4
  0.0144372124   9   2   7   6
  -0.2166734701   9   2   8   1
  -0.1258762668   9   2   8   3
  0.0859589292   9   2   8   5
  0.0095200331   9   2   8   7
  0.2949603831   9   2   9   2
  0.0303314519   9   3   1   1
  -0.1064614812   9   3   2   2
  -0.1354467940   9   3   3   1
  -0.1962766799   9   3   3   3
  -0.2214851194   9   3   4   2
  0.0042343131   9   3   4   4
  -0.0826944454   9   3   5   1
  -0.0161325705   9   3   5   3
  -0.0345594193   9   3   5   5
  -0.1195477956   9   3   6   2
  0.0571118048   9   3   6   4
  -0.0304326392   9   3   6   6
  0.1784609574   9   3   7   1
  0.0324956861   9   3   7   3
  -0.0479418855   9   3   7   5
  -0.0128562950   9   3   7   7
  -0.1851918135   9   3   8   2
  -0.1250252164   9   3   8   4
  -0.1039143403   9   3   8   6
  -0.0128562950   9   3   8   8
  0.0894309849   9   3   9   1
  0.2800064081   9   3   9   3
  -0.1739429460   9   4   2   1
  -0.2922937284   9   4   3   2
  -0.1162168391   9   4   4   1
  -0.0354197787   9   4   4   3
  0.1388743573   9   4   5   2
  -0.0368356401   9   4   5   4
  -0.2399905447   9   4   6   1
  -0.1357870559   9   4   6   3
  0.1015102209   9   4   6   5
  0.2138660296   9   4   7   2
  0.0268280036   9   4   7   4
  0.0959504240   9   4   7   6
  0.0786216200   9   4   8   1
  -0.2184962032   9   4   8   3
  -0.1245375362   9   4   8   5
  0.1132924986   9   4   8   7
  0.0427828323   9   4   9   2
  0.3168571795   9   4   9   4
  -0.2179873070   9   5   1   1
  -0.3797129620   9   5   2   2
  -0.1609799508   9   5   3   1
  -0.0492243536   9   5   3   3
  0.1684833589   9   5   4   2
  -0.0739487729   9   5   4   4
  0.3207793530   9   5   5   1
  0.1411557314   9   5   5   3
  -0.0437341024   9   5   5   5
  -0.2754981705   9   5   6   2
  -0.1691599215   9   5   6   4
  -0.1619124878   9   5   6   6
  -0.0396737841   9   5   7   1
  0.2784423987   9   5   7   3
  0.0123267017   9   5   7   5
  -0.1522276881   9   5   7   7
  0.1040038462   9   5   8   2
  -0.2643918396   9   5   8   4
  0.1127896022   9   5   8   6
  -0.1522276881   9   5   8   8
  -0.0654252714   9   5   9   1
  0.0373798735   9   5   9   3
  0.3619355542   9   5   9   5
  0.2141851933   9   6   2   1
  -0.2050741743   9   6   3   2
  -0.4141281688   9   6   4   1
  -0.1591933342   9   6   4   3
  -0.3569475526   9   6   5   2
  -0.1582577489   9   6   5   4
  -0.0577390010   9   6   6   1
  0.3368564650   9   6   6   3
  0.2103586859   9   6   6   5
  0.0666135017   9   6   7   2
  -0.3589439064   9   6   7   4
  -0.0185566279   9   6   7   6
  -0.0084929433   9   6   8   1
  -0.1323954587   9   6   8   3
  0.3135827158   9   6   8   5
  0.1662364505   9   6   8   7
  0.0881259014   9   6   9   2
  -0.0322157649   9   6   9   4
  0.4791049219   9   6   9   6
  -0.6094394423   9   7   1   1
  -0.0486989105   9   7   2   2
  0.5571390557   9   7   3   1
  -0.1086059970   9   7   3   3
  0.4894303364   9   7   4   2
  -0.1127678887   9   7   4   4
  -0.0692832356   9   7   5   1
  0.4715446290   9   7   5   3
  -0.0985622251   9   7   5   5
  0.0854587756   9   7   6   2
  -0.4597383415   9   7   6   4
  -0.0130318384   9   7   6   6
  -0.0107529445   9   7   7   1
  -0.0855181414   9   7   7   3
  0.4988538407   9   7   7   5
  -0.3795511086   9   7   7   7
  0.0105744923   9   7   8   2
  0.1552989200   9   7   8   4
  0.4488172853   9   7   8   6
  -0.3795511086   9   7   8   8
  -0.0074268410   9   7   9   1
  -0.1039143403   9   7   9   3
  0.1127896022   9   7   9   5
  0.4488172853   9   7   9   7
  -1.4273345773   9   8   2   1
  -1.1308272733   9   8   3   2
  0.3004508558   9   8   4   1
  -1.0970294996   9   8   4   3
  0.3364876550   9   8   5   2
  -1.0808760683   9   8   5   4
  -0.0272249812   9   8   6   1
  -0.3538290578   9   8   6   3
  1.0702227878   9   8   6   5
  0.0283208107   9   8   7   2
  0.3533233448   9   8   7   4
  1.3664085022   9   8   7   6
  -0.0042789854   9   8   8   1
  -0.0115033973   9   8   8   3
  -0.2603105020   9   8   8   5
  0.5759483582   9   8   8   7
  0.0144372124   9   8   9   2
  0.0959504240   9   8   9   4
  -0.0185566279   9   8   9   6
  1.3664085022   9   8   9   8
  3.7617017486   9   9   1   1
  3.9335378144   9   9   2   2
  0.1712922414   9   9   3   1
  3.7402480590   9   9   3   3
  -0.0233339522   9   9   4   2
  3.7025808952   9   9   4   4
  -0.1952690250   9   9   5   1
  -0.0615180624   9   9   5   3
  3.6815264758   9   9   5   5
  0.2277189378   9   9   6   2
  0.0814930739   9   9   6   4
  3.8438859689   9   9   6   6
  -0.0211762642   9   9   7   1
  -0.2282674033   9   9   7   3
  0.0934078160   9   9   7   5
  3.7540770418   9   9   7   7
  0.0169170082   9   9   8   2
  0.1168643879   9   9   8   4
  -0.0130318384   9   9   8   6
  3.7540770418   9   9   8   8
  -0.0141108350   9   9   9   1
  -0.0304326392   9   9   9   3
  -0.1619124878   9   9   9   5
  -0.0130318384   9   9   9   7
  3.8438859689   9   9   9   9
  -0.0142010652   10   1   2   1
  0.0490153770   10   1   3   2
  0.0597617158   10   1   4   1
  0.0143810282   10   1   4   3
  0.0265456270   10   1   5   2
  0.0768637002   10   1   5   4
  0.0130928448   10   1   6   1
  -0.0792245845   10   1   6   3
  0.0494877324   10   1   6   5
  0.0467250383   10   1   7   2
  -0.0373884062   10   1   7   4
  -0.0102734356   10   1   7   6
  -0.1093164550   10   1   8   1
  0.1610041258   10   1   8   3
  -0.0583015635   10   1   8   5
  -0.0055215646   10   1   8   7
  -0.0699115981   10   1   9   2
  -0.0785117523   10   1   9   4
  -0.0578089078   10   1   9   6
  -0.0102734356   10   1   9   8
  0.1766998099   10   1   10   1
  -0.0163258487   10   2   1   1
  0.0591488996   10   2   2   2
  0.0743412843   10   2   3   1
  0.0480384089   10   2   3   3
  0.0613278402   10   2   4   2
  0.1160367264   10   2   4   4
  -0.0115518697   10   2   5   1
  0.1275113615   10   2   5   3
  -0.0053869772   10   2   5   5
  -0.0638229044   10   2   6   2
  -0.0028590958   10   2   6   4
  -0.0120632955   10   2   6   6
  0.0867965091   10   2   7   1
  -0.0405339454   10   2   7   3
  -0.0033719727   10   2   7   5
  0.0118978883   10   2   7   7
  0.0612019147   10   2   8   2
  0.1143959237   10   2   8   4
  0.0740383288   10   2   8   6
  0.0118978883   10   2   8   8
  -0.0983837897   10   2   9   1
  -0.1443869000   10   2   9   3
  -0.0372270933   10   2   9   5
  0.0740383288   10   2   9   7
  -0.0120632955   10   2   9   9
  0.1825601813   10   2   10   2
  0.0945844478   10   3   2   1
  0.0779196511   10   3   3   2
  -0.0154944131   10   3   4   1
  0.1728729373   10   3   4   3
  0.0764103263   10   3   5   2
  0.0270465855   10   3   5   4
  -0.0788854774   10   3   6   1
  0.0525667730   10   3   6   3
  -0.0330623841   10   3   6   5
  -0.0181513943   10   3   7   2
  -0.0331200633   10   3   7   4
  -0.0288349828   10   3   7   6
  0.2093558998   10   3   8   1
  0.0133565168   10   3   8   3
  0.1105276709   10   3   8   5
  -0.0841569191   10   3   8   7
  -0.1986007066   10   3   9   2
  -0.1061950087   10   3   9   4
  0.0302836516   10   3   9   6
  -0.0288349828   10   3   9   8
  -0.0085896406   10   3   10   1
  0.2722933096   10   3   10   3
  0.1166904417   10   4   1   1
  0.1029993120   10   4   2   2
  -0.0130300810   10   4   3   1
  0.2296803793   10   4   3   3
  0.1131710490   10   4   4   2
  0.0213688769   10   4   4   4
  0.1201160471   10   4   5   1
  -0.0940101491   10   4   5   3
  0.0700389062   10   4   5   5
  0.0905689827   10   4   6   2
  0.0314546841   10   4   6   4
  0.0608606639   10   4   6   6
  -0.1873895991   10   4   7   1
  0.0035161157   10   4   7   3
  -0.0300436262   10   4   7   5
  0.0650183557   10   4   7   7
  0.1869193407   10   4   8   2
  0.0094643281   10   4   8   4
  -0.1029799892   10   4   8   6
  0.0650183557   10   4   8   8
  -0.0850270474   10   4   9   1
  -0.1916371457   10   4   9   3
  -0.0997545430   10   4   9   5
  -0.1029799892   10   4   9   7
  0.0608606639   10   4   9   9
  0.0592893842   10   4   10   2
  0.2726396332   10   4   10   4
  -0.0012482723   10   5   2   1
  0.1615560287   10   5   3   2
  0.1595876328   10   5   4   1
  -0.0950222307   10   5   4   3
  -0.0979173173   10   5   5   2
  -0.0907414742   10   5   5   4
  0.2431051009   10   5   6   1
  0.0971778961   10   5   6   3
  0.0101315405   10   5   6   5
  -0.2189335053   10   5   7   2
  0.0153600270   10   5   7   4
  0.0205669108   10   5   7   6
  -0.0763611598   10   5   8   1
  0.2210469401   10   5   8   3
  0.0095626315   10   5   8   5
  0.1649766028   10   5   8   7
  -0.0429468752   10   5   9   2
  -0.2291147143   10   5   9   4
  0.1702089037   10   5   9   6
  0.0205669108   10   5   9   8
  0.0746627819   10   5   10   1
  0.0254728321   10   5   10   3
  0.3860855120   10   5   10   5
  -0.2179873070   10   6   1   1
  -0.3797129620   10   6   2   2
  -0.1609799508   10   6   3   1
  -0.0492243536   10   6   3   3
  0.1684833589   10   6   4   2
  -0.0739487729   10   6   4   4
  0.3207793530   10   6   5   1
  0.1411557314   10   6   5   3
  -0.0437341024   10   6   5   5
  -0.2754981705   10   6   6   2
  -0.1691599215   10   6   6   4
  -0.1619124878   10   6   6   6
  -0.0396737841   10   6   7   1
  0.2784423987   10   6   7   3
  0.0123267017   10   6   7   5
  -0.1522276881   10   6   7   7
  0.1040038462   10   6   8   2
  -0.2643918396   10   6   8   4
  0.1127896022   10   6   8   6
  -0.1522276881   10   6   8   8
  -0.0654252714   10   6   9   1
  0.0373798735   10   6   9   3
  0.3619355542   10   6   9   5
  0.1127896022   10   6   9   7
  -0.1619124878   10   6   9   9
  -0.0372270933   10   6   10   2
  -0.0997545430   10   6   10   4
  0.3619355542   10   6   10   6
  0.5014725744   10   7   2   1
  0.0552467864   10   7   3   2
  -0.4406843300   10   7   4   1
  0.0908135217   10   7   4   3
  -0.3924954375   10   7   5   2
  0.0858428957   10   7   5   4
  -0.0491152721   10   7   6   1
  0.3747810106   10   7   6   3
  -0.0318114466   10   7   6   5
  0.0568724109   10   7   7   2
  -0.3889128656   10   7   7   4
  -0.2603105020   10   7   7   6
  -0.0067451056   10   7   8   1
  -0.1289715568   10   7   8   3
  0.4245203849   10   7   8   5
  -0.1663596693   10   7   8   7
  0.0859589292   10   7   9   2
  -0.1245375362   10   7   9   4
  0.3135827158   10   7   9   6
  -0.2603105020   10   7   9   8
  -0.0583015635   10   7   10   1
  0.1105276709   10   7   10   3
  0.0095626315   10   7   10   5
  0.4245203849   10   7   10   7
  -0.9201503367   10   8   1   1
  0.0106366837   10   8   2   2
  0.9270387665   10   8   3   1
  -0.1529142898   10   8   3   3
  0.7536730506   10   8   4   2
  -0.1582628078   10   8   4   4
  -0.1808105005   10   8   5   1
  0.7321873680   10   8   5   3
  -0.1419115458   10   8   5   5
  0.2068913786   10   8   6   2
  -0.7180887876   10   8   6   4
  0.0934078160   10   8   6   6
  -0.0130616759   10   8   7   1
  -0.2175193482   10   8   7   3
  0.8978443647   10   8   7   5
  -0.6443427642   10   8   7   7
  0.0116243604   10   8   8   2
  0.1645524775   10   8   8   4
  0.4988538407   10   8   8   6
  -0.6443427642   10   8   8   8
  -0.0107939997   10   8   9   1
  -0.0479418855   10   8   9   3
  0.0123267017   10   8   9   5
  0.4988538407   10   8   9   7
  0.0934078160   10   8   9   9
  -0.0033719727   10   8   10   2
  -0.0300436262   10   8   10   4
  0.0123267017   10   8   10   6
  0.8978443647   10   8   10   8
  -0.9940828234   10   9   2   1
  -1.1491610111   10   9   3   2
  -0.1505162358   10   9   4   1
  -1.0399059974   10   9   4   3
  -0.0317766698   10   9   5   2
  -1.0252676009   10   9   5   4
  -0.1216398840   10   9   6   1
  0.0055165491   10   9   6   3
  1.1539469632   10   9   6   5
  0.1390606068   10   9   7   2
  -0.1210427603   10   9   7   4
  1.0702227878   10   9   7   6
  -0.0123648439   10   9   8   1
  -0.0436008532   10   9   8   3
  -0.0318114466   10   9   8   5
  0.5028983189   10   9   8   7
  -0.0123762694   10   9   9   2
  0.1015102209   10   9   9   4
  0.2103586859   10   9   9   6
  1.0702227878   10   9   9   8
  0.0494877324   10   9   10   1
  -0.0330623841   10   9   10   3
  0.0101315405   10   9   10   5
  -0.0318114466   10   9   10   7
  1.1539469632   10   9   10   9
  3.8467497147   10   10   1   1
  3.7100134476   10   10   2   2
  -0.1361237727   10   10   3   1
  3.7882920866   10   10   3   3
  -0.0557067552   10   10   4   2
  3.7055160517   10   10   4   4
  0.0833680533   10   10   5   1
  -0.1360579194   10   10   5   3
  3.7919460107   10   10   5   5
  -0.0030239435   10   10   6   2
  0.0430704791   10   10   6   4
  3.6815264758   10   10   6   6
  -0.0896920646   10   10   7   1
  0.0997119118   10   10   7   3
  -0.1419115458   10   10   7   5
  3.7934978223   10   10   7   7
  -0.0146371951   10   10   8   2
  0.0000046270   10   10   8   4
  -0.0985622251   10   10   8   6
  3.7934978223   10   10   8   8
  0.0576728707   10   10   9   1
  -0.0345594193   10   10   9   3
  -0.0437341024   10   10   9   5
  -0.0985622251   10   10   9   7
  3.6815264758   10   10   9   9
  -0.0053869772   10   10   10   2
  0.0700389062   10   10   10   4
  -0.0437341024   10   10   10   6
  -0.1419115458   10   10   10   8
  3.7919460107   10   10   10   10
  0.0096616214   11   1   1   1
  -0.0430675629   11   1   2   2
  -0.0515330791   11   1   3   1
  -0.0075199224   11   1   3   3
  -0.0162287908   11   1   4   2
  -0.0148982997   11   1   4   4
  0.0263197114   11   1   5   1
  -0.0219997906   11   1   5   3
  -0.0652879500   11   1   5   5
  -0.0107965421   11   1   6   2
  0.0663584722   11   1   6   4
  0.0428320582   11   1   6   6
  0.0033274748   11   1   7   1
  -0.0420578121   11   1   7   3
  0.0364260852   11   1   7   5
  -0.0083584681   11   1   7   7
  0.0988315200   11   1   8   2
  -0.1485683873   11   1   8   4
  -0.0551444928   11   1   8   6
  -0.0083584681   11   1   8   8
  -0.0921911112   11   1   9   1
  0.0652503539   11   1   9   3
  0.0729945371   11   1   9   5
  -0.0551444928   11   1   9   7
  0.0428320582   11   1   9   9
  -0.0742439779   11   1   10   2
  0.0089815420   11   1   10   4
  0.0729945371   11   1   10   6
  0.0364260852   11   1   10   8
  -0.0652879500   11   1   10   10
  0.1637289911   11   1   11   1
  -0.0578324842   11   2   2   1
  -0.0473297357   11   2   3   2
  0.0097291065   11   2   4   1
  -0.0354803517   11   2   4   3
  0.0147154014   11   2   5   2
  -0.1027897032   11   2   5   4
  0.0074122567   11   2   6   1
  0.0530412161   11   2   6   3
  -0.0010281072   11   2   6   5
  -0.0651505150   11   2   7   2
  0.0317262237   11   2   7   4
  -0.0065731014   11   2   7   6
  0.1084345903   11   2   8   1
  -0.0535864001   11   2   8   3
  -0.1060125013   11   2   8   5
  0.0680060231   11   2   8   7
  -0.0202302884   11   2   9   2
  0.1352722406   11   2   9   4
  -0.0331972866   11   2   9   6
  -0.0065731014   11   2   9   8
  -0.0939290542   11   2   10   1
  -0.0653386692   11   2   10   3
  -0.0557382239   11   2   10   5
  -0.1060125013   11   2   10   7
  -0.0010281072   11   2   10   9
  0.1729693641   11   2   11   2
  -0.0691072893   11   3   1   1
  -0.0565363285   11   3   2   2
  0.0119724498   11   3   3   1
  -0.0590210245   11   3   3   3
  0.0086874567   11   3   4   2
  -0.1412379690   11   3   4   4