 &FCI NORB= 13,NELEC= ,MS0= ,
  ORBSYM=1,3,1,3,1,1,3,1,3,1,1,3,1,
  ISYM=1,
 /
  -65.4444932655166127233314910   1   1   0   0
  -59.6015088796372509705179255   2   2   0   0
  -0.0000000443534262650757682   3   1   0   0
  -59.6015085338604393427885952   3   3   0   0
  2.2765500881539373345674449   4   2   0   0
  0.0000001041496775489036963   4   3   0   0
  -58.0511331150649994015111588   4   4   0   0
  -0.0000000275906808511194868   5   1   0   0
  -0.0000001041496673348518698   5   2   0   0
  2.2765502259368117776716645   5   3   0   0
  -58.0511333810239165131861228   5   5   0   0
  -5.7882266623760969537215715   6   1   0   0
  0.0000000846017704780877011   6   3   0   0
  0.0000003326898974087555416   6   5   0   0
  -61.8872609412835359421478643   6   6   0   0
  0.0000002712109359912193506   7   2   0   0
  -0.0000001037422084708202100   7   4   0   0
  -54.5244488137883536182926036   7   7   0   0
  -0.0000000114310427790087488   8   1   0   0
  -0.0000005600666681537802560   8   2   0   0
  -3.0705842420944420290140897   8   3   0   0
  0.0000005375617155856105001   8   4   0   0
  2.3562143067239293969805658   8   5   0   0
  0.0000001123151052162540964   8   6   0   0
  -54.4875942206661108002663241   8   8   0   0
  3.0705841680181324981901980   9   2   0   0
  -0.0000005600666663774234166   9   3   0   0
  -2.3562145350554399847453624   9   4   0   0
  0.0000005375616713987341200   9   5   0   0
  0.0000000683643347199447424   9   7   0   0
  -54.4875942000248016938712681   9   9   0   0
  -0.4534908171606644167184186   10   1   0   0
  0.0000000122318426498679855   10   3   0   0
  0.0000000236124009234117693   10   5   0   0
  -3.6448374495448798704444471   10   6   0   0
  0.0000003228792078147080247   10   8   0   0
  -55.0449527880003586233215174   10   10   0   0
  -0.0000000279932050872844229   11   1   0   0
  0.0000000646777333912496033   11   2   0   0
  1.6758550718757960762417270   11   3   0   0
  -0.0000002063037918276222626   11   4   0   0
  -2.4460162398224145618996772   11   5   0   0
  -0.0000000223292233592076172   11   6   0   0
  3.3174054392543514957480966   11   8   0   0
  0.0000004770547179511197555   11   9   0   0
  0.0000001856855553761249666   11   10   0   0
  -51.6036319280776609730310156   11   11   0   0
  -1.6758549427655626828936875   12   2   0   0
  0.0000000646777400525877511   12   3   0   0
  2.4460162480357841019440457   12   4   0   0
  -0.0000002063038135879935453   12   5   0   0
  -0.0000001195128828362036194   12   7   0   0
  -0.0000004770546948584808433   12   8   0   0
  3.3174052484333524937198945   12   9   0   0
  -51.6036321952059608975105220   12   12   0   0
  -1.0046946303851049808741891   13   1   0   0
  0.0000000205326688984541761   13   3   0   0
  0.0000000583041469548462032   13   5   0   0
  1.2504653072421210158182703   13   6   0   0
  0.0000000458670326164423159   13   8   0   0
  5.3657152325401904491286587   13   10   0   0
  -54.3764482930303145735706494   13   13   0   0
  5.8329378527   1   1   1   1
  1.0679778743   2   1   2   1
  5.2494824177   2   2   1   1
  5.4124223752   2   2   2   2
  0.0860565199   3   1   2   2
  1.0679778204   3   1   3   1
  0.0860565187   3   2   2   1
  0.3399276479   3   2   3   2
  5.2494823738   3   3   1   1
  4.7325670900   3   3   2   2
  -0.0860565121   3   3   3   1
  5.4124223155   3   3   3   3
  -0.1446284916   4   1   2   1
  0.0000000270   4   1   2   2
  0.3855684506   4   1   3   2
  -0.0000000270   4   1   3   3
  0.4967130694   4   1   4   1
  -0.3042595127   4   2   1   1
  0.0000000610   4   2   2   1
  -0.0362970271   4   2   2   2
  0.8728099601   4   2   3   1
  -0.2042889230   4   2   3   3
  -0.0000000114   4   2   4   1
  0.8592782356   4   2   4   2
  -0.0000000139   4   3   1   1
  0.8728099982   4   3   2   1
  -0.0000000610   4   3   3   1
  0.0839959607   4   3   3   2
  -0.0984716287   4   3   4   1
  0.9902420932   4   3   4   3
  5.2878842930   4   4   1   1
  4.9651996690   4   4   2   2
  -0.0508866601   4   4   3   1
  -0.0000000114   4   4   3   2
  5.2146576513   4   4   3   3
  -0.0000000218   4   4   4   1
  -0.1739866091   4   4   4   2
  5.2701682756   4   4   4   4
  0.3855684450   5   1   2   2
  -0.1446284867   5   1   3   1
  -0.0000000270   5   1   3   2
  -0.3855684229   5   1   3   3
  -0.0984716318   5   1   4   2
  0.0000000114   5   1   4   3
  -0.1349263400   5   1   4   4
  0.4967130581   5   1   5   1
  0.0000000139   5   2   1   1
  0.8728099835   5   2   2   1
  -0.0000000610   5   2   3   1
  0.0839959509   5   2   3   2
  -0.0984716369   5   2   4   1
  0.4502766581   5   2   4   3
  0.0000000114   5   2   5   1
  0.9902420597   5   2   5   2
  -0.3042595229   5   3   1   1
  -0.0000000610   5   3   2   1
  -0.2042889435   5   3   2   2
  -0.8728099414   5   3   3   1
  -0.0362970274   5   3   3   3
  0.0000000114   5   3   4   1
  -0.5812404526   5   3   4   2
  -0.1199282912   5   3   4   4
  0.0984716282   5   3   5   1
  0.8592782091   5   3   5   3
  -0.0508866764   5   4   2   1
  0.0000000114   5   4   2   2
  -0.1247290130   5   4   3   2
  -0.0000000114   5   4   3   3
  -0.1349263539   5   4   4   1
  -0.0270291683   5   4   4   3
  0.0000000218   5   4   5   1
  -0.0270291800   5   4   5   2
  0.1540400224   5   4   5   4
  5.2878843295   5   5   1   1
  5.2146576993   5   5   2   2
  0.0508866731   5   5   3   1
  0.0000000114   5   5   3   2
  4.9651996508   5   5   3   3
  0.0000000218   5   5   4   1
  -0.1199282914   5   5   4   2
  4.9620882468   5   5   4   4
  0.1349263628   5   5   5   1
  -0.1739866374   5   5   5   3
  5.2701683170   5   5   5   5
  0.7977022101   6   1   1   1
  0.2390697634   6   1   2   2
  0.2390697477   6   1   3   3
  -0.2496471641   6   1   4   2
  -0.0000000114   6   1   4   3
  0.2680070979   6   1   4   4
  0.0000000114   6   1   5   2
  -0.2496471629   6   1   5   3
  0.2680071267   6   1   5   5
  0.7684510519   6   1   6   1
  -0.6183672241   6   2   2   1
  -0.2423998034   6   2   3   2
  -0.1527300948   6   2   4   1
  -0.0000000373   6   2   4   2
  -0.5332799100   6   2   4   3
  -0.5332798763   6   2   5   2
  0.0000000373   6   2   5   3
  0.0152002168   6   2   5   4
  0.5429516976   6   2   6   2
  -0.2423998113   6   3   2   2
  -0.6183672333   6   3   3   1
  0.2423997905   6   3   3   3
  -0.5332799084   6   3   4   2
  0.0000000373   6   3   4   3
  0.0152001974   6   3   4   4
  -0.1527300925   6   3   5   1
  0.0000000373   6   3   5   2
  0.5332798980   6   3   5   3
  -0.0152002191   6   3   5   5
  0.5429517341   6   3   6   3
  -0.4219219265   6   4   2   1
  -0.0000000194   6   4   2   2
  -0.0000000193   6   4   3   1
  -0.2776474678   6   4   3   2
  0.0000000194   6   4   3   3
  -0.2239082800   6   4   4   1
  -0.0000000394   6   4   4   2
  -0.3407359985   6   4   4   3
  0.0000000225   6   4   4   4
  -0.3407359897   6   4   5   2
  0.0000000394   6   4   5   3
  0.1395022628   6   4   5   4
  -0.0000000225   6   4   5   5
  0.3467205050   6   4   6   2
  0.0000000159   6   4   6   3
  0.3788948956   6   4   6   4
  -0.0000000439   6   5   1   1
  0.0000000193   6   5   2   1
  -0.2776474606   6   5   2   2
  -0.4219219168   6   5   3   1
  0.0000000194   6   5   3   2
  0.2776474222   6   5   3   3
  -0.3407359778   6   5   4   2
  0.0000000394   6   5   4   3
  0.1395022271   6   5   4   4
  -0.2239082534   6   5   5   1
  0.0000000394   6   5   5   2
  0.3407359961   6   5   5   3
  -0.0000000225   6   5   5   4
  -0.1395022734   6   5   5   5
  -0.0000000326   6   5   6   1
  -0.0000000159   6   5   6   2
  0.3467205056   6   5   6   3
  0.3788948683   6   5   6   5
  5.8472689780   6   6   1   1
  5.2001749369   6   6   2   2
  5.2001749357   6   6   3   3
  -0.2331737827   6   6   4   2
  -0.0000000107   6   6   4   3
  5.2140389199   6   6   4   4
  -0.0000000226   6   6   5   1
  0.0000000107   6   6   5   2
  -0.2331737934   6   6   5   3
  5.2140389378   6   6   5   5
  0.8922343995   6   6   6   1
  -0.0000000329   6   6   6   5
  6.0541463710   6   6   6   6
  -0.0000000122   7   1   4   2
  0.2656218748   7   1   4   3
  -0.2656218755   7   1   5   2
  -0.0000000122   7   1   5   3
  -0.0000000115   7   1   6   2
  0.2613314785   7   1   7   1
  -0.0000000362   7   2   1   1
  -0.3744038439   7   2   2   2
  0.0212156700   7   2   3   1
  0.3744038059   7   2   3   3
  -0.0000000206   7   2   4   1
  0.0211968594   7   2   4   2
  0.2409542829   7   2   4   4
  -0.4493020631   7   2   5   1
  -0.0211968338   7   2   5   3
  -0.0000000279   7   2   5   4
  -0.2409543287   7   2   5   5
  -0.0000000218   7   2   6   1
  0.1226067135   7   2   6   3
  0.0000000136   7   2   6   4
  0.2978586171   7   2   6   5
  0.5288103258   7   2   7   2
  -0.0212156660   7   3   2   1
  0.3744038461   7   3   3   2
  0.4493020791   7   3   4   1
  -0.0211968501   7   3   4   3
  -0.0000000279   7   3   4   4
  -0.0000000206   7   3   5   1
  -0.0211968368   7   3   5   2
  -0.2409543098   7   3   5   4
  0.0000000279   7   3   5   5
  -0.1226067213   7   3   6   2
  -0.2978586519   7   3   6   4
  0.0000000136   7   3   6   5
  0.5288103498   7   3   7   3
  -0.0000000470   7   4   2   1
  0.1029589207   7   4   2   2
  1.0282808706   7   4   3   1
  -0.1029589069   7   4   3   3
  0.8615990783   7   4   4   2
  -0.0000000996   7   4   4   3
  -0.0390932022   7   4   4   4
  -0.0965226397   7   4   5   1
  -0.0000000996   7   4   5   2
  -0.8615990611   7   4   5   3
  0.0390932175   7   4   5   5
  0.0000000297   7   4   6   2
  -0.6495279244   7   4   6   3
  -0.3649262842   7   4   6   5
  0.0156609715   7   4   7   2
  1.0985236823   7   4   7   4
  -1.0282809123   7   5   2   1
  -0.0000000470   7   5   3   1
  -0.1029588920   7   5   3   2
  0.0965226728   7   5   4   1
  -0.0000000996   7   5   4   2
  -0.8615991072   7   5   4   3
  -0.8615990908   7   5   5   2
  0.0000000996   7   5   5   3
  0.0390932103   7   5   5   4
  0.6495278937   7   5   6   2
  0.0000000297   7   5   6   3
  0.3649262744   7   5   6   4
  0.0156609988   7   5   7   3
  1.0985237065   7   5   7   5
  -0.0000000377   7   6   2   1
  -0.2069149954   7   6   4   3
  0.2069149292   7   6   5   2
  0.0000000318   7   6   6   2
  0.0000000128   7   6   6   4
  -0.2035728157   7   6   7   1
  0.0000000105   7   6   7   3
  0.0000000388   7   6   7   5
  0.1585797911   7   6   7   6
  5.1331767044   7   7   1   1
  5.0400076043   7   7   2   2
  -0.0000000403   7   7   3   1
  5.0400075835   7   7   3   3
  -0.1218145207   7   7   4   2
  5.0796221696   7   7   4   4
  0.0000000180   7   7   5   1
  -0.1218144570   7   7   5   3
  5.0796221778   7   7   5   5
  0.1282232130   7   7   6   1
  0.0000000163   7   7   6   3
  5.0177275872   7   7   6   6
  -0.0000000179   7   7   7   2
  -0.0000000427   7   7   7   4
  5.1387566437   7   7   7   7
  0.0000000304   8   1   2   1
  -0.0232615694   8   1   2   2
  0.1667998129   8   1   3   1
  0.0232615663   8   1   3   3
  -0.0000000169   8   1   4   1
  0.1045273659   8   1   4   2
  0.0000000118   8   1   4   3
  -0.1373719377   8   1   4   4
  -0.0738930668   8   1   5   1
  0.0000000118   8   1   5   2
  -0.1045273703   8   1   5   3
  0.1373719412   8   1   5   5
  0.0433214177   8   1   6   3
  -0.0000000213   8   1   6   4
  -0.0934536997   8   1   6   5
  -0.0953271668   8   1   7   2
  0.0000000174   8   1   7   3
  0.1085694669   8   1   7   4
  -0.0000000248   8   1   7   5
  0.2258643736   8   1   8   1
  0.0000000748   8   2   1   1
  -0.0259253731   8   2   2   1
  0.0000000232   8   2   2   2
  -0.0349980796   8   2   3   2
  0.0000000359   8   2   3   3
  -0.0192489109   8   2   4   1
  -0.0000000263   8   2   4   2
  -0.2072448457   8   2   4   3
  0.0000000408   8   2   4   4
  0.1944792095   8   2   5   2
  -0.0000000234   8   2   5   3
  0.0172252323   8   2   5   4
  0.0000000313   8   2   5   5
  0.0000000614   8   2   6   1
  0.0049006063   8   2   6   2
  0.0810081931   8   2   6   4
  0.0000000574   8   2   6   6
  -0.1976176488   8   2   7   1
  -0.0416256144   8   2   7   3
  -0.0668543088   8   2   7   5
  0.1539408163   8   2   7   6
  0.0000000297   8   2   7   7
  -0.0000000102   8   2   8   1
  0.2365022116   8   2   8   2
  0.4098986270   8   3   1   1
  0.1969424028   8   3   2   2
  0.0259253706   8   3   3   1
  0.1269462483   8   3   3   3
  -0.1804399260   8   3   4   2
  0.0000000266   8   3   4   3
  0.1803669281   8   3   4   4
  0.0192488994   8   3   5   1
  -0.0000000295   8   3   5   2
  -0.1932055577   8   3   5   3
  0.2148174123   8   3   5   5
  0.3364555771   8   3   6   1
  -0.0049005939   8   3   6   3
  -0.0810082036   8   3   6   5
  0.3149232840   8   3   6   6
  0.0000000360   8   3   7   1
  -0.0416256221   8   3   7   2
  -0.0668543123   8   3   7   4
  -0.0000000281   8   3   7   6
  0.1628761606   8   3   7   7
  0.0299474740   8   3   8   1
  0.0000000185   8   3   8   2
  0.3381388210   8   3   8   3
  -0.0000000480   8   4   1   1
  -0.0062934551   8   4   2   1
  -0.0000000580   8   4   2   2
  -0.3109311029   8   4   3   2
  0.0000000269   8   4   3   3
  -0.3714020164   8   4   4   1
  -0.0258903843   8   4   4   3
  0.0000000110   8   4   4   4
  -0.0000000248   8   4   5   1
  -0.0182417814   8   4   5   2
  0.0000000122   8   4   5   3
  0.0983227885   8   4   5   4
  -0.0000000339   8   4   5   5
  -0.0000000433   8   4   6   1
  0.1970516835   8   4   6   2
  0.0000000222   8   4   6   3
  0.2208113886   8   4   6   4
  0.0000000147   8   4   6   5
  -0.0000000606   8   4   6   6
  -0.0037625298   8   4   7   1
  0.0000000378   8   4   7   2
  -0.3362603948   8   4   7   3
  0.0366080508   8   4   7   5
  0.0029309458   8   4   7   6
  0.0000000179   8   4   7   7
  0.0000000162   8   4   8   1
  0.0246542949   8   4   8   2
  -0.0000000105   8   4   8   3
  0.2922707716   8   4   8   4
  -0.2105010470   8   5   1   1
  0.2428190411   8   5   2   2
  0.0062934359   8   5   3   1
  -0.0000000425   8   5   3   2
  -0.3790431512   8   5   3   3
  -0.0000000248   8   5   4   1
  0.0570361944   8   5   4   2
  -0.1486318042   8   5   4   4
  0.3714020246   8   5   5   1
  0.0129040610   8   5   5   3
  0.0000000224   8   5   5   4
  0.0480137602   8   5   5   5
  -0.1899810452   8   5   6   1
  0.0000000222   8   5   6   2
  -0.1970516808   8   5   6   3
  0.0000000147   8   5   6   4
  -0.2208113590   8   5   6   5
  -0.2658118905   8   5   6   6
  -0.3362603859   8   5   7   2
  -0.0000000378   8   5   7   3
  0.0366080516   8   5   7   4
  0.0784411891   8   5   7   7
  -0.0547805180   8   5   8   1
  -0.0000000104   8   5   8   2
  -0.0264322425   8   5   8   3
  0.0000000395   8   5   8   4
  0.4655481644   8   5   8   5
  0.0000001077   8   6   2   1
  -0.0138799325   8   6   2   2
  0.5903373061   8   6   3   1
  0.0138799325   8   6   3   3
  -0.0000000374   8   6   4   1
  0.4808456053   8   6   4   2
  0.0000000541   8   6   4   3
  0.0605751359   8   6   4   4
  -0.1637853019   8   6   5   1
  0.0000000541   8   6   5   2
  -0.4808455940   8   6   5   3
  -0.0605751319   8   6   5   5
  -0.0000000127   8   6   6   1
  -0.0000000619   8   6   6   2
  -0.3393088423   8   6   6   3
  -0.0000000461   8   6   6   4
  -0.2018528381   8   6   6   5
  -0.0000000120   8   6   6   6
  0.1455123880   8   6   7   2
  -0.0000000265   8   6   7   3
  0.5082084224   8   6   7   4
  -0.0000001159   8   6   7   5
  -0.0000000166   8   6   7   7
  0.0284829756   8   6   8   1
  -0.0000000223   8   6   8   2
  0.0655207215   8   6   8   3
  0.0000000150   8   6   8   4
  -0.0510237796   8   6   8   5
  0.4215868400   8   6   8   6
  -0.7647210250   8   7   2   1
  0.0000000130   8   7   2   2
  0.0000001395   8   7   3   1
  -0.0819028965   8   7   3   2
  -0.0000000130   8   7   3   3
  0.0654466806   8   7   4   1
  0.0000000721   8   7   4   2
  -0.6407131816   8   7   4   3
  -0.0000000149   8   7   5   1
  -0.6407131719   8   7   5   2
  -0.0000000721   8   7   5   3
  0.0324977215   8   7   5   4
  0.4849731913   8   7   6   2
  -0.0000000885   8   7   6   3
  0.2757174094   8   7   6   4
  -0.0000000629   8   7   6   5
  0.0041608947   8   7   7   3
  0.0000001864   8   7   7   4
  0.8170590175   8   7   7   5
  0.0000000278   8   7   7   6
  -0.0491487153   8   7   8   2
  -0.0000000167   8   7   8   3
  0.0319988246   8   7   8   4
  0.6078175126   8   7   8   7
  5.4195577945   8   8   1   1
  -0.0000000235   8   8   2   1
  5.0729724470   8   8   2   2
  0.0690699054   8   8   3   1
  0.0000000219   8   8   3   2
  5.1928692477   8   8   3   3
  0.0000000267   8   8   4   1
  -0.1384006468   8   8   4   2
  -0.0000000209   8   8   4   3
  5.0533089464   8   8   4   4
  -0.0905744311   8   8   5   1
  -0.2023940445   8   8   5   3
  0.0000000436   8   8   5   4
  5.2445134884   8   8   5   5
  0.3864033855   8   8   6   1
  -0.0000000305   8   8   6   2
  0.0895682310   8   8   6   3
  -0.0151464075   8   8   6   5
  5.3776386613   8   8   6   6
  -0.0383578184   8   8   7   2
  -0.0000000131   8   8   7   3
  0.0393309447   8   8   7   4
  0.0000000116   8   8   7   5
  5.0347162827   8   8   7   7
  0.1727045356   8   8   8   1
  0.0000000426   8   8   8   2
  0.2336407804   8   8   8   3
  -0.0000000528   8   8   8   4
  -0.2315328714   8   8   8   5
  -0.0181375701   8   8   8   6
  0.0000000156   8   8   8   7
  5.3872238681   8   8   8   8
  -0.1667998237   9   1   2   1
  0.0000000304   9   1   3   1
  0.0232615701   9   1   3   2
  0.0738930696   9   1   4   1
  0.0000000118   9   1   4   2
  -0.1045273761   9   1   4   3
  -0.0000000169   9   1   5   1
  -0.1045273748   9   1   5   2
  -0.0000000118   9   1   5   3
  0.1373719366   9   1   5   4
  -0.0433214137   9   1   6   2
  0.0934537025   9   1   6   4
  -0.0000000213   9   1   6   5
  -0.0000000174   9   1   7   2
  -0.0953271662   9   1   7   3
  0.0000000248   9   1   7   4
  0.1085694759   9   1   7   5
  0.0299474737   9   1   8   2
  0.0000000102   9   1   8   3
  -0.0547805115   9   1   8   4
  -0.0000000162   9   1   8   5
  0.0821239396   9   1   8   7
  0.0000000903   9   1   8   8
  0.2258643743   9   1   9   1
  -0.4098986160   9   2   1   1
  -0.1269462469   9   2   2   2
  0.0259253826   9   2   3   1
  -0.1969423957   9   2   3   3
  0.1932055583   9   2   4   2
  -0.0000000295   9   2   4   3
  -0.2148173962   9   2   4   4
  0.0192489103   9   2   5   1
  0.0000000266   9   2   5   2
  0.1804399143   9   2   5   3
  -0.1803669274   9   2   5   5
  -0.3364555681   9   2   6   1
  -0.0049006010   9   2   6   3
  -0.0810081845   9   2   6   5
  -0.3149232807   9   2   6   6
  -0.0000000360   9   2   7   1
  -0.0416256088   9   2   7   2
  -0.0668543025   9   2   7   4
  0.0000000281   9   2   7   6
  -0.1628761479   9   2   7   7
  0.0299474751   9   2   8   1
  -0.0000000185   9   2   8   2
  -0.1640094792   9   2   8   3
  0.0000000125   9   2   8   4
  0.0700504196   9   2   8   5
  0.0655207225   9   2   8   6
  -0.0000000167   9   2   8   7
  -0.2260389582   9   2   8   8
  0.0000000102   9   2   9   1
  0.3381388085   9   2   9   2
  0.0000000748   9   3   1   1
  0.0259253774   9   3   2   1
  0.0000000359   9   3   2   2
  0.0349980701   9   3   3   2
  0.0000000232   9   3   3   3
  0.0192488984   9   3   4   1
  -0.0000000234   9   3   4   2
  -0.1944792112   9   3   4   3
  0.0000000313   9   3   4   4
  0.2072448475   9   3   5   2
  -0.0000000263   9   3   5   3
  -0.0172252378   9   3   5   4
  0.0000000408   9   3   5   5
  0.0000000614   9   3   6   1
  -0.0049005897   9   3   6   2
  -0.0810081901   9   3   6   4
  0.0000000574   9   3   6   6
  -0.1976176521   9   3   7   1
  0.0416256174   9   3   7   3
  0.0668543079   9   3   7   5
  0.1539408194   9   3   7   6
  0.0000000297   9   3   7   7
  0.0000000102   9   3   8   1
  0.0623728847   9   3   8   2
  0.0000000185   9   3   8   3
  -0.0189638761   9   3   8   4
  0.0000000223   9   3   8   6
  0.0491487129   9   3   8   7
  0.0000000412   9   3   8   8
  -0.0299474724   9   3   9   1
  -0.0000000185   9   3   9   2
  0.2365022172   9   3   9   3
  0.2105010782   9   4   1   1
  0.3790431698   9   4   2   2
  0.0062934397   9   4   3   1
  -0.0000000425   9   4   3   2
  -0.2428190111   9   4   3   3
  -0.0000000248   9   4   4   1
  -0.0129040644   9   4   4   2
  -0.0480137414   9   4   4   4
  0.3714020068   9   4   5   1
  -0.0570362036   9   4   5   3
  0.0000000224   9   4   5   4
  0.1486318368   9   4   5   5
  0.1899810513   9   4   6   1
  0.0000000222   9   4   6   2
  -0.1970516731   9   4   6   3
  0.0000000147   9   4   6   4
  -0.2208113722   9   4   6   5
  0.2658118833   9   4   6   6
  -0.3362603882   9   4   7   2
  -0.0000000378   9   4   7   3
  0.0366080594   9   4   7   4
  -0.0784411672   9   4   7   7
  -0.0547805101   9   4   8   1
  0.0700504166   9   4   8   3
  -0.0000000395   9   4   8   4
  0.1188850491   9   4   8   5
  -0.0510237889   9   4   8   6
  0.0783039608   9   4   8   8
  -0.0000000162   9   4   9   1
  -0.0264322429   9   4   9   2
  0.0000000104   9   4   9   3
  0.4655481480   9   4   9   4
  -0.0000000480   9   5   1   1
  0.0062934722   9   5   2   1
  0.0000000269   9   5   2   2
  0.3109311056   9   5   3   2
  -0.0000000580   9   5   3   3
  0.3714020161   9   5   4   1
  0.0000000122   9   5   4   2
  0.0182417979   9   5   4   3
  -0.0000000339   9   5   4   4
  0.0000000248   9   5   5   1
  0.0258903963   9   5   5   2
  -0.0983227907   9   5   5   4
  0.0000000110   9   5   5   5
  -0.0000000433   9   5   6   1
  -0.1970516940   9   5   6   2
  -0.0000000222   9   5   6   3
  -0.2208113951   9   5   6   4
  -0.0000000147   9   5   6   5
  -0.0000000606   9   5   6   6
  -0.0037625286   9   5   7   1
  -0.0000000378   9   5   7   2
  0.3362603969   9   5   7   3
  -0.0366080700   9   5   7   5
  0.0029309478   9   5   7   6
  0.0000000179   9   5   7   7
  -0.0000000162   9   5   8   1
  -0.0189638787   9   5   8   2
  -0.0000000125   9   5   8   3
  -0.2921624309   9   5   8   4
  0.0000000395   9   5   8   5
  -0.0000000150   9   5   8   6
  -0.0319988390   9   5   8   7
  -0.0000000179   9   5   8   8
  0.0547805087   9   5   9   1
  0.0000000105   9   5   9   2
  0.0246542884   9   5   9   3
  -0.0000000395   9   5   9   4
  0.2922707747   9   5   9   5
  -0.5903373202   9   6   2   1
  0.0000001077   9   6   3   1
  0.0138799429   9   6   3   2
  0.1637853127   9   6   4   1
  0.0000000541   9   6   4   2
  -0.4808456127   9   6   4   3
  -0.0000000374   9   6   5   1
  -0.4808456066   9   6   5   2
  -0.0000000541   9   6   5   3
  -0.0605751332   9   6   5   4
  0.3393088247   9   6   6   2
  -0.0000000619   9   6   6   3
  0.2018528226   9   6   6   4
  -0.0000000461   9   6   6   5
  0.0000000265   9   6   7   2
  0.1455123969   9   6   7   3
  0.0000001159   9   6   7   4
  0.5082084402   9   6   7   5
  0.0000000207   9   6   7   6
  0.0655207133   9   6   8   2
  0.0000000223   9   6   8   3
  -0.0510237838   9   6   8   4
  -0.0000000150   9   6   8   5
  0.3760362849   9   6   8   7
  0.0284829794   9   6   9   1
  0.0000000223   9   6   9   2
  -0.0655207207   9   6   9   3
  -0.0000000150   9   6   9   4
  0.0510237769   9   6   9   5
  0.4215868386   9   6   9   6
  -0.0000001395   9   7   2   1
  -0.0819029065   9   7   2   2
  -0.7647209992   9   7   3   1
  -0.0000000130   9   7   3   2
  0.0819029001   9   7   3   3
  0.0000000149   9   7   4   1
  -0.6407131649   9   7   4   2
  -0.0000000721   9   7   4   3
  0.0324977186   9   7   4   4
  0.0654466683   9   7   5   1
  -0.0000000721   9   7   5   2
  0.6407131508   9   7   5   3
  -0.0324977277   9   7   5   5
  0.0000000885   9   7   6   2
  0.4849732076   9   7   6   3
  0.0000000629   9   7   6   4
  0.2757174125   9   7   6   5
  -0.0041608804   9   7   7   2
  -0.8170590039   9   7   7   4
  0.0000001864   9   7   7   5
  0.0000000279   9   7   7   7
  -0.0821239416   9   7   8   1
  -0.0000000167   9   7   8   2
  0.0491487192   9   7   8   3
  -0.0319988223   9   7   8   5
  -0.3760362729   9   7   8   6
  -0.0298048151   9   7   8   8
  0.0491487097   9   7   9   2
  0.0000000167   9   7   9   3
  -0.0319988147   9   7   9   4
  0.6078175056   9   7   9   7
  0.0690699417   9   8   2   1
  -0.0000000219   9   8   2   2
  0.0000000235   9   8   3   1
  -0.0599484109   9   8   3   2
  0.0000000219   9   8   3   3
  -0.0905744398   9   8   4   1
  0.0000000131   9   8   4   2
  0.0319967191   9   8   4   3
  -0.0000000436   9   8   4   4
  -0.0000000267   9   8   5   1
  0.0319967343   9   8   5   2
  -0.0000000131   9   8   5   3
  -0.0956022547   9   8   5   4
  0.0000000436   9   8   5   5
  0.0895682077   9   8   6   2
  0.0000000305   9   8   6   3
  -0.0151463972   9   8   6   4
  -0.0000000104   9   8   7   1
  -0.0000000131   9   8   7   2
  0.0383577922   9   8   7   3
  0.0000000116   9   8   7   4
  -0.0393309796   9   8   7   5
  0.0000000903   9   8   8   1
  -0.0038009027   9   8   8   2
  0.0766144596   9   8   8   4
  -0.0000000175   9   8   8   5
  -0.0298048384   9   8   8   7
  -0.1727045312   9   8   9   1
  0.0038009129   9   8   9   3
  -0.0000000175   9   8   9   4
  -0.0766144579   9   8   9   5
  0.0181375425   9   8   9   6
  -0.0000000156   9   8   9   7
  0.1423543465   9   8   9   8
  5.4195577929   9   9   1   1
  0.0000000235   9   9   2   1
  5.1928692802   9   9   2   2
  -0.0690698861   9   9   3   1
  -0.0000000219   9   9   3   2
  5.0729724268   9   9   3   3
  -0.0000000267   9   9   4   1
  -0.2023940228   9   9   4   2
  5.2445134665   9   9   4   4
  0.0905744394   9   9   5   1
  0.0000000209   9   9   5   2
  -0.1384006652   9   9   5   3
  -0.0000000436   9   9   5   4
  5.0533089746   9   9   5   5
  0.3864033737   9   9   6   1
  0.0000000305   9   9   6   2
  -0.0895682494   9   9   6   3
  0.0151463572   9   9   6   5
  5.3776386496   9   9   6   6
  0.0383577742   9   9   7   2
  0.0000000131   9   9   7   3
  -0.0393309140   9   9   7   4
  -0.0000000116   9   9   7   5
  5.0347162986   9   9   7   7
  -0.1727045266   9   9   8   1
  0.0000000412   9   9   8   2
  0.2260389621   9   9   8   3
  -0.0000000179   9   9   8   4
  -0.0783039306   9   9   8   5
  0.0181375664   9   9   8   6
  -0.0000000156   9   9   8   7
  5.1025151598   9   9   8   8
  -0.0000000903   9   9   9   1
  -0.2336407824   9   9   9   2
  0.0000000426   9   9   9   3
  0.2315328768   9   9   9   4
  -0.0000000528   9   9   9   5
  0.0298048026   9   9   9   7
  5.3872238556   9   9   9   9
  0.0738823337   10   1   1   1
  -0.0327816535   10   1   2   2
  -0.0327816495   10   1   3   3
  0.0606800148   10   1   4   2
  -0.0604348122   10   1   4   4
  0.0606800092   10   1   5   3
  -0.0604348130   10   1   5   5
  0.1530129175   10   1   6   1
  0.2862797482   10   1   6   6
  -0.1294495980   10   1   7   7
  -0.0000000147   10   1   8   2
  -0.0807315933   10   1   8   3
  -0.0000000210   10   1   8   4
  -0.0922383974   10   1   8   5
  -0.0061696826   10   1   8   8
  0.0807315880   10   1   9   2
  -0.0000000147   10   1   9   3
  0.0922383940   10   1   9   4
  -0.0000000210   10   1   9   5
  -0.0061696895   10   1   9   9
  0.2409762371   10   1   10   1
  -0.1366050696   10   2   2   1
  0.2031489302   10   2   3   2
  0.2643442673   10   2   4   1
  -0.0978308724   10   2   4   3
  -0.0000000121   10   2   5   1
  -0.0978308751   10   2   5   2
  0.0153243672   10   2   5   4
  -0.0941700106   10   2   6   2
  -0.1090797734   10   2   6   4
  0.1606455960   10   2   7   3
  0.1688595593   10   2   7   5
  -0.0000000260   10   2   8   1
  -0.0716497720   10   2   8   2
  -0.0000000113   10   2   8   3
  -0.2045622847   10   2   8   4
  -0.0000000230   10   2   8   5
  0.1233527702   10   2   8   7
  0.0000000480   10   2   8   8
  0.1426036099   10   2   9   1
  -0.0000000113   10   2   9   2
  0.0716497691   10   2   9   3
  -0.0000000230   10   2   9   4
  0.2045622811   10   2   9   5
  0.0207642460   10   2   9   6
  0.0000000225   10   2   9   7
  -0.1409666915   10   2   9   8
  -0.0000000480   10   2   9   9
  0.2635780992   10   2   10   2
  0.2031489298   10   3   2   2
  -0.1366050649   10   3   3   1
  -0.2031489153   10   3   3   3
  0.0000000121   10   3   4   1
  -0.0978308729   10   3   4   2
  0.0153243793   10   3   4   4
  0.2643442614   10   3   5   1
  0.0978308695   10   3   5   3
  -0.0153243647   10   3   5   5
  -0.0941700115   10   3   6   3
  -0.1090797647   10   3   6   5
  -0.1606455841   10   3   7   2
  -0.1688595467   10   3   7   4
  0.0000000173   10   3   7   7
  -0.1426036132   10   3   8   1
  -0.0000000113   10   3   8   2
  0.0716497755   10   3   8   3
  -0.0000000230   10   3   8   4
  0.2045622955   10   3   8   5
  -0.0207642326   10   3   8   6
  -0.0000000225   10   3   8   7
  -0.1409666933   10   3   8   8
  -0.0000000260   10   3   9   1
  0.0716497739   10   3   9   2
  0.0000000113   10   3   9   3
  0.2045622814   10   3   9   4
  0.0000000230   10   3   9   5
  0.1233527722   10   3   9   7
  -0.0000000480   10   3   9   8
  0.1409666913   10   3   9   9
  0.2635781092   10   3   10   3
  0.5210599183   10   4   2   1
  0.0000000238   10   4   3   1
  -0.0305367095   10   4   3   2
  -0.1661776789   10   4   4   1
  0.0000000493   10   4   4   2
  0.4265633293   10   4   4   3
  0.0000000124   10   4   4   4
  0.4265633171   10   4   5   2
  -0.0000000493   10   4   5   3
  0.0767416331   10   4   5   4
  -0.0000000124   10   4   5   5
  -0.3016885184   10   4   6   2
  -0.0000000138   10   4   6   3
  -0.1603168813   10   4   6   4
  -0.1653938633   10   4   7   3
  -0.4494300079   10   4   7   5
  -0.0000000213   10   4   7   6
  -0.0560088064   10   4   8   2
  0.0599183272   10   4   8   4
  0.0000000881   10   4   8   6
  -0.3320246227   10   4   8   7
  -0.0053128439   10   4   9   1
  0.0560088084   10   4   9   3
  -0.0599183214   10   4   9   5
  -0.3861793851   10   4   9   6