 &FCI NORB= 22,NELEC= ,MS0= ,
  ORBSYM=1,2,1,2,3,4,1,3,2,4,3,1,2,4,1,3,2,1,4,3,4,3,
  ISYM=1,
 /
  -34.9132740330713460252809455   1   1   0   0
  -32.7119135805484475554294477   2   2   0   0
  1.7757418928978185856948357   3   1   0   0
  -31.4502779329084134474214807   3   3   0   0
  -2.3665243432190123940017656   4   2   0   0
  -30.1544309918367936518279748   4   4   0   0
  -32.0935998130186703747313004   5   5   0   0
  -0.0000000197228291337614436   6   5   0   0
  -29.9297607245090944161347579   6   6   0   0
  -0.5742125170779432963286126   7   1   0   0
  -2.8150000579547382884015860   7   3   0   0
  -28.2897416504084482369307807   7   7   0   0
  -1.6639305826622756701027583   8   5   0   0
  0.0000000134297896692281427   8   6   0   0
  -28.7134321696761887210413988   8   8   0   0
  0.7522288524418760946588236   9   2   0   0
  -0.0000000448153048004940047   9   3   0   0
  -2.9694120095373142120820376   9   4   0   0
  0.0000001311763639932905789   9   7   0   0
  -29.9031254991726669345553091   9   9   0   0
  -2.0729372267170340649045102   10   6   0   0
  -0.0000000148657948173536170   10   8   0   0
  -27.7521941393076296833442029   10   10   0   0
  -0.3675197951628579318139600   11   5   0   0
  1.9066531981548306973195395   11   8   0   0
  -0.0000000199082632601488285   11   10   0   0
  -27.8992490812458733273615508   11   11   0   0
  0.0628406065043936035152683   12   1   0   0
  0.2210252182238443552364515   12   3   0   0
  -1.0678602529829870348976328   12   7   0   0
  -0.0000000887348787781405690   12   9   0   0
  -26.8447452603559248984765873   12   12   0   0
  -0.1454486491091562250232982   13   2   0   0
  -0.0060477370839339128494316   13   4   0   0
  -0.0000000353187206147964616   13   7   0   0
  -1.7366665010150601489158362   13   9   0   0
  -0.0000000116784714121465072   13   12   0   0
  -24.7882185220856037233261304   13   13   0   0
  0.5817469189423309927633454   14   6   0   0
  -0.0000000318025185075399008   14   8   0   0
  -1.8762370301944959471995844   14   10   0   0
  -0.0000000316800488064927777   14   11   0   0
  -25.1009084314688095673773205   14   14   0   0
  -0.0642498048905139063080583   15   1   0   0
  0.0000000158752101464543216   15   2   0   0
  0.5122573943049056888199289   15   3   0   0
  -0.0000000403614387467499114   15   4   0   0
  1.1489479586987740855619222   15   7   0   0
  0.0000000397155318632158583   15   9   0   0
  -1.8777888947925300833219353   15   12   0   0
  -23.9154060982161595916295482   15   15   0   0
  -0.3164545197973150925108143   16   5   0   0
  1.2827869886919298636485109   16   8   0   0
  -0.0000000125414664209344551   16   10   0   0
  1.0593335103447167888646163   16   11   0   0
  -0.0000001475233551984089786   16   14   0   0
  -22.4340875205858978347350785   16   16   0   0
  0.0000000167788168914384528   17   1   0   0
  0.7625929709589150951032366   17   2   0   0
  0.0000000387467292695120591   17   3   0   0
  0.5193058030186177287390592   17   4   0   0
  -0.0000000104509824128129480   17   7   0   0
  -0.5119373972011100892842705   17   9   0   0
  2.0580087368825346061385062   17   13   0   0
  -23.6774714899081821783966006   17   17   0   0
  -0.9193220499319556537898279   18   1   0   0
  -0.0000000298791308361856522   18   2   0   0
  0.2063293497957786604146690   18   3   0   0
  -0.2713610220587873156361525   18   7   0   0
  0.3576812716507425937706444   18   12   0   0
  -1.6617720944345828471000459   18   15   0   0
  -0.0000000157630715008627575   18   17   0   0
  -24.9156294712985122430382035   18   18   0   0
  -0.5929682185261896387729053   19   6   0   0
  -0.0120001009946156811381002   19   10   0   0
  0.0000000187641283622141941   19   11   0   0
  -2.8502957239120512156205223   19   14   0   0
  0.0000000143518318340696283   19   16   0   0
  -22.3921892064968801605573390   19   19   0   0
  -0.2342370178447656936526755   20   5   0   0
  -0.0000000147449175647018649   20   6   0   0
  -0.4911818620207253904830225   20   8   0   0
  0.0000000319311775909270068   20   10   0   0
  0.1749944775842672273213907   20   11   0   0
  -0.0000000497757067785542517   20   14   0   0
  2.7109998372183121695400132   20   16   0   0
  0.0000000149499331802971369   20   19   0   0
  -21.8532353366120837279140687   20   20   0   0
  0.0000000165557147158157392   21   5   0   0
  -0.7145705198369831645521799   21   6   0   0
  -0.0000000337292033192326812   21   8   0   0
  -0.1007680675221954702536209   21   10   0   0
  0.7042599470247338233619416   21   14   0   0
  -2.3119083450972728321914929   21   19   0   0
  -0.0000000113646976829251400   21   20   0   0
  -21.6601075817693242697714595   21   21   0   0
  0.8509238143575829083076201   22   5   0   0
  -0.0000000269153724585802223   22   6   0   0
  0.0398749278289083075588195   22   8   0   0
  0.0448154417665518889357656   22   11   0   0
  0.5458187155499091280930202   22   16   0   0
  1.7534891413245905500417621   22   20   0   0
  -22.9354705251199675331008621   22   22   0   0
  1.9843292808   1   1   1   1
  0.6635586015   2   1   2   1
  1.6386286643   2   2   1   1
  1.7617003006   2   2   2   2
  -0.3494092383   3   1   1   1
  0.1203996720   3   1   2   2
  0.4712048729   3   1   3   1
  0.4308973441   3   2   2   1
  0.5632231447   3   2   3   2
  1.6284886066   3   3   1   1
  1.5726951054   3   3   2   2
  -0.0586983747   3   3   3   1
  1.6222174855   3   3   3   3
  0.2353358379   4   1   2   1
  -0.1292356919   4   1   3   2
  0.3652873770   4   1   4   1
  0.3638978493   4   2   1   1
  0.0753342637   4   2   2   2
  -0.2903155015   4   2   3   1
  0.0174458458   4   2   3   3
  0.3462434022   4   2   4   2
  -0.4235702454   4   3   2   1
  -0.3295011765   4   3   3   2
  -0.0988526969   4   3   4   1
  0.5583873484   4   3   4   3
  1.6178405088   4   4   1   1
  1.4740084428   4   4   2   2
  -0.1483639763   4   4   3   1
  1.5757072680   4   4   3   3
  0.0506810727   4   4   4   2
  1.7083847002   4   4   4   4
  0.4878804082   5   1   5   1
  0.2826989918   5   2   5   2
  -0.1475340244   5   3   5   1
  0.2509708447   5   3   5   3
  0.1262730171   5   4   5   2
  0.2172787072   5   4   5   4
  1.9275633419   5   5   1   1
  1.5914717337   5   5   2   2
  -0.3349057559   5   5   3   1
  1.5784687325   5   5   3   3
  0.3430683517   5   5   4   2
  1.5597475596   5   5   4   4
  1.9440329792   5   5   5   5
  -0.2855537704   6   1   5   2
  -0.1273628889   6   1   5   4
  0.2886025307   6   1   6   1
  -0.3379586868   6   2   5   1
  -0.1070126123   6   2   5   3
  0.4465955130   6   2   6   2
  -0.1500616530   6   3   5   2
  0.0981638582   6   3   5   4
  0.1514531279   6   3   6   1
  0.2506685401   6   3   6   3
  -0.1435895344   6   4   5   1
  0.1322379057   6   4   5   3
  0.0097188474   6   4   6   2
  0.2115668164   6   4   6   4
  -0.6228250337   6   5   2   1
  -0.4031228566   6   5   3   2
  -0.2154280923   6   5   4   1
  0.3962853842   6   5   4   3
  0.6370970490   6   5   6   5
  1.5983341461   6   6   1   1
  1.6958387284   6   6   2   2
  0.0972009586   6   6   3   1
  1.5205873964   6   6   3   3
  0.0768635150   6   6   4   2
  1.4646109710   6   6   4   4
  1.6057097244   6   6   5   5
  1.7221695495   6   6   6   6
  0.0105588853   7   1   1   1
  0.1950014684   7   1   2   2
  0.1847055736   7   1   3   1
  -0.0312027287   7   1   3   3
  0.0417664550   7   1   4   2
  -0.1139684706   7   1   4   4
  0.0082585809   7   1   5   5
  0.1627714808   7   1   6   6
  0.2227884738   7   1   7   1
  0.2448263459   7   2   2   1
  0.1224025161   7   2   3   2
  0.1231602844   7   2   4   1
  0.1298521136   7   2   4   3
  -0.2126817634   7   2   6   5
  0.0000000104   7   2   7   1
  0.3828462395   7   2   7   2
  0.3766228160   7   3   1   1
  0.1915275967   7   3   2   2
  -0.1865228528   7   3   3   1
  0.0712117922   7   3   3   3
  0.0000000102   7   3   4   1
  0.3113314194   7   3   4   2
  -0.0700111695   7   3   4   4
  0.3455166839   7   3   5   5
  0.1388988419   7   3   6   6
  0.1343860826   7   3   7   1
  0.4518788678   7   3   7   3
  0.2913792167   7   4   2   1
  0.0000000126   7   4   3   1
  0.4326514986   7   4   3   2
  -0.1455348783   7   4   4   1
  -0.4210258264   7   4   4   3
  -0.3008488356   7   4   6   5
  -0.1322084940   7   4   7   2
  0.5867284967   7   4   7   4
  -0.0013206374   7   5   5   1
  0.1055130920   7   5   5   3
  -0.1047817942   7   5   6   2
  -0.0617537331   7   5   6   4
  0.1470712561   7   5   7   5
  -0.1157245161   7   6   5   2
  -0.0839389765   7   6   5   4
  0.1161154957   7   6   6   1
  0.0244207373   7   6   6   3
  0.1918010431   7   6   7   6
  1.4136881100   7   7   1   1
  0.0000000197   7   7   2   1
  1.5874152971   7   7   2   2
  0.1728528120   7   7   3   1
  0.0000000118   7   7   3   2
  1.5611926992   7   7   3   3
  -0.1411167749   7   7   4   2
  -0.0000000114   7   7   4   3
  1.5604125736   7   7   4   4
  1.3738160776   7   7   5   5
  -0.0000000173   7   7   6   5
  1.4836756955   7   7   6   6
  0.0412790737   7   7   7   1
  -0.1268574546   7   7   7   3
  0.0000000119   7   7   7   4
  1.7789765132   7   7   7   7
  0.1426564277   8   1   5   1
  -0.2519551114   8   1   5   3
  0.1136796975   8   1   6   2
  -0.1315081104   8   1   6   4
  -0.1047311886   8   1   7   5
  0.2546600955   8   1   8   1
  -0.1556717577   8   2   5   2
  0.0958492159   8   2   5   4
  0.1572974342   8   2   6   1
  0.2541724104   8   2   6   3
  0.0211828334   8   2   7   6
  0.2585413547   8   2   8   2
  -0.3296855863   8   3   5   1
  0.0051577489   8   3   5   3
  0.3242520973   8   3   6   2
  -0.0846412481   8   3   6   4
  0.0677604756   8   3   7   5
  -0.0003923610   8   3   8   1
  0.4190096278   8   3   8   3
  0.1434096916   8   4   5   2
  0.0086702794   8   4   5   4
  -0.1448766713   8   4   6   1
  -0.1394469152   8   4   6   3
  0.0855922481   8   4   7   6
  -0.1478840731   8   4   8   2
  0.2261065375   8   4   8   4
  0.3229727256   8   5   1   1
  -0.1057947986   8   5   2   2
  -0.4269027369   8   5   3   1
  0.0544139341   8   5   3   3
  0.2624532449   8   5   4   2
  0.0892251282   8   5   4   4
  0.3371481978   8   5   5   5
  -0.1156737691   8   5   6   6
  -0.1524244260   8   5   7   1
  0.2041106241   8   5   7   3
  -0.0000000103   8   5   7   4
  -0.1094733939   8   5   7   7
  0.4512837958   8   5   8   5
  0.4117238937   8   6   2   1
  0.5184215146   8   6   3   2
  -0.1042119361   8   6   4   1
  -0.3626254797   8   6   4   3
  -0.4156617489   8   6   6   5
  0.0626050988   8   6   7   2
  0.3805761958   8   6   7   4
  0.0000000102   8   6   7   7
  0.5488027412   8   6   8   6
  -0.1298982416   8   7   5   1
  0.1017961184   8   7   5   3
  0.0238584103   8   7   6   2
  0.1239796934   8   7   6   4
  -0.0383838874   8   7   7   5
  -0.1070652419   8   7   8   1
  0.0022452257   8   7   8   3
  0.1863472419   8   7   8   7
  1.5790274934   8   8   1   1
  1.5257549454   8   8   2   2
  -0.0523457427   8   8   3   1
  1.6110736316   8   8   3   3
  -0.0298109655   8   8   4   2
  1.4903726503   8   8   4   4
  1.5946393871   8   8   5   5
  1.5448300725   8   8   6   6
  -0.0609084995   8   8   7   1
  0.0796103268   8   8   7   3
  1.4486576157   8   8   7   7
  0.0502323391   8   8   8   5
  1.7412931516   8   8   8   8
  -0.0025171015   9   1   2   1
  -0.2015727114   9   1   3   2
  0.2007382827   9   1   4   1
  -0.1953975503   9   1   4   3
  0.0000980918   9   1   6   5
  -0.2116192560   9   1   7   2
  -0.0240304032   9   1   7   4
  -0.1258848760   9   1   8   6
  0.3422122651   9   1   9   1
  -0.0118345356   9   2   1   1
  -0.2435073459   9   2   2   2
  -0.2327726199   9   2   3   1
  -0.0071272789   9   2   3   3
  -0.0074791346   9   2   4   2
  0.1865100087   9   2   4   4
  -0.0091200431   9   2   5   5
  -0.1744311316   9   2   6   6
  -0.2556154512   9   2   7   1
  -0.2082180104   9   2   7   3
  -0.0574051089   9   2   7   7
  0.1619851806   9   2   8   5
  -0.0179020288   9   2   8   8
  0.3608506344   9   2   9   2
  -0.3034392886   9   3   2   1
  -0.0111366954   9   3   3   2
  -0.3008517985   9   3   4   1
  0.0218014150   9   3   4   3
  0.2387974700   9   3   6   5
  -0.2958887376   9   3   7   2
  0.2228370691   9   3   7   4
  -0.0205248198   9   3   8   6
  -0.0213915594   9   3   9   1
  0.4273564942   9   3   9   3
  0.4613060658   9   4   1   1
  0.0644684706   9   4   2   2
  -0.4021984667   9   4   3   1
  0.0833971892   9   4   3   3
  0.3884538774   9   4   4   2
  0.0850984462   9   4   4   4
  0.3999972165   9   4   5   5
  0.0000000107   9   4   6   5
  0.0755226220   9   4   6   6
  -0.0264948197   9   4   7   1
  0.3903034769   9   4   7   3
  -0.2439681942   9   4   7   7
  0.3161154875   9   4   8   5
  0.0853759425   9   4   8   8
  0.0389999974   9   4   9   2
  0.0000000120   9   4   9   3
  0.5639826735   9   4   9   4
  0.0024383092   9   5   5   2
  0.0987616581   9   5   5   4
  -0.0025921673   9   5   6   1
  0.0937737921   9   5   6   3
  0.0995558223   9   5   7   6
  0.0886034316   9   5   8   2
  0.0873851219   9   5   8   4
  0.1666325641   9   5   9   5
  -0.0027053709   9   6   5   1
  0.1008870955   9   6   5   3
  -0.0960292367   9   6   6   2
  -0.0038272220   9   6   6   4
  0.1119097807   9   6   7   5
  -0.0945927988   9   6   8   1
  0.0033891654   9   6   8   3
  -0.0857940595   9   6   8   7
  0.1552525261   9   6   9   6
  -0.0000000197   9   7   1   1
  -0.6055604177   9   7   2   1
  0.0000000118   9   7   3   1
  -0.5658454693   9   7   3   2
  -0.0471497678   9   7   4   1
  -0.0000000125   9   7   4   2
  0.5617161463   9   7   4   3
  -0.0000000204   9   7   5   5
  0.5189330254   9   7   6   5
  -0.0687045899   9   7   7   2
  -0.0000000142   9   7   7   3
  -0.5611621537   9   7   7   4
  -0.0000000109   9   7   7   7
  -0.0000000104   9   7   8   5
  -0.4773262709   9   7   8   6
  0.0144948281   9   7   9   1
  0.0805863439   9   7   9   3
  -0.0000000175   9   7   9   4
  0.8312131259   9   7   9   7
  0.1041011890   9   8   5   2
  0.1099953498   9   8   5   4
  -0.1028696664   9   8   6   1
  0.0025993205   9   8   6   3
  -0.1063972129   9   8   7   6
  0.0004880323   9   8   8   2
  -0.0001596269   9   8   8   4
  0.0079497526   9   8   9   5
  0.1443408080   9   8   9   8
  1.7473670631   9   9   1   1
  -0.0000000246   9   9   2   1
  1.6574407970   9   9   2   2
  -0.0973480127   9   9   3   1
  -0.0000000239   9   9   3   2
  1.6465434347   9   9   3   3
  0.1228721700   9   9   4   2
  0.0000000242   9   9   4   3
  1.6529502315   9   9   4   4
  1.6217990861   9   9   5   5
  0.0000000221   9   9   6   5
  1.5267687953   9   9   6   6
  0.0242396426   9   9   7   1
  0.1437449623   9   9   7   3
  -0.0000000261   9   9   7   4
  1.6463533831   9   9   7   7
  0.0868026019   9   9   8   5
  -0.0000000211   9   9   8   6
  1.4938224618   9   9   8   8
  -0.0320249351   9   9   9   2
  0.1590351636   9   9   9   4
  0.0000000287   9   9   9   7
  1.8280686118   9   9   9   9
  -0.1241637843   10   1   5   2
  -0.2163989096   10   1   5   4
  0.1258439351   10   1   6   1
  -0.1028894773   10   1   6   3
  0.0972802037   10   1   7   6
  -0.1019646845   10   1   8   2
  0.0126223666   10   1   8   4
  -0.0817842716   10   1   9   5
  -0.0922788057   10   1   9   8
  0.2249491523   10   1   10   1
  -0.1402148150   10   2   5   1
  0.1364735025   10   2   5   3
  0.0012795266   10   2   6   2
  0.2293465070   10   2   6   4
  -0.0719773783   10   2   7   5
  -0.1374634039   10   2   8   1
  -0.1097488402   10   2   8   3
  0.1200876688   10   2   8   7
  -0.0005370819   10   2   9   6
  0.2549176356   10   2   10   2
  0.1507839813   10   3   5   2
  -0.0018487506   10   3   5   4
  -0.1526666671   10   3   6   1
  -0.1575104536   10   3   6   3
  0.0793603910   10   3   7   6
  -0.1669270448   10   3   8   2
  0.2288115210   10   3   8   4
  0.0744573999   10   3   9   5
  0.0021853370   10   3   9   8
  0.0236361086   10   3   10   1
  0.2352721871   10   3   10   3
  -0.3112183058   10   4   5   1
  -0.0011356811   10   4   5   3
  0.3159331048   10   4   6   2
  0.0009445306   10   4   6   4
  0.0164614794   10   4   7   5
  0.0133347387   10   4   8   1
  0.3030970549   10   4   8   3
  -0.0709616223   10   4   8   7
  0.0696238902   10   4   9   6
  -0.0024647479   10   4   10   2
  0.3644818450   10   4   10   4
  -0.2056469260   10   5   2   1
  0.1117149030   10   5   3   2
  -0.3094259778   10   5   4   1
  0.0265343702   10   5   4   3
  0.2233265872   10   5   6   5
  -0.1493048403   10   5   7   2
  0.0703370822   10   5   7   4
  0.1303627374   10   5   8   6
  -0.1162337300   10   5   9   1
  0.2034330349   10   5   9   3
  0.0357408438   10   5   9   7
  0.3543087054   10   5   10   5
  0.3298256580   10   6   1   1
  0.0581320220   10   6   2   2
  -0.2704040006   10   6   3   1
  -0.0452196889   10   6   3   3
  0.3638094456   10   6   4   2
  0.0566454417   10   6   4   4
  0.3456624730   10   6   5   5
  0.0629688313   10   6   6   6
  0.0727977610   10   6   7   1
  0.2536239651   10   6   7   3
  -0.0761536506   10   6   7   7
  0.2822393996   10   6   8   5
  -0.1494670490   10   6   8   8
  0.0062278428   10   6   9   2
  0.2917027228   10   6   9   4
  -0.0000000107   10   6   9   7
  0.1024191263   10   6   9   9
  0.4976061794   10   6   10   6
  -0.1179207792   10   7   5   2
  0.0188500391   10   7   5   4
  0.1209317297   10   7   6   1
  0.1290576455   10   7   6   3
  -0.0236777235   10   7   7   6
  0.1304330135   10   7   8   2
  -0.1226104269   10   7   8   4
  0.0054211558   10   7   9   5
  0.0692235634   10   7   9   8
  -0.0030654317   10   7   10   1
  -0.1240156133   10   7   10   3
  0.1720999320   10   7   10   7
  -0.4035663214   10   8   2   1
  -0.4062597909   10   8   3   2
  -0.0004622842   10   8   4   1
  0.4702605413   10   8   4   3
  0.4142456595   10   8   6   5
  0.0616778686   10   8   7   2
  -0.3643463336   10   8   7   4
  -0.4869831895   10   8   8   6
  -0.0646140994   10   8   9   1
  0.0266901425   10   8   9   3
  0.4564904418   10   8   9   7
  0.0000000205   10   8   9   9
  -0.0748747437   10   8   10   5
  0.5324581899   10   8   10   8
  -0.1053057079   10   9   5   1
  0.1055459734   10   9   5   3
  0.0015069842   10   9   6   2
  0.1018605218   10   9   6   4
  0.0061691211   10   9   7   5
  -0.0986885263   10   9   8   1
  0.0039040652   10   9   8   3
  0.0975992854   10   9   8   7
  0.0095327704   10   9   9   6
  0.0898043896   10   9   10   2
  0.0043242444   10   9   10   4
  0.1210813334   10   9   10   9
  1.5699992208   10   10   1   1
  1.5565036449   10   10   2   2
  -0.0134426590   10   10   3   1
  1.4984623092   10   10   3   3
  0.0657576234   10   10   4   2
  1.5491328951   10   10   4   4
  1.5976785434   10   10   5   5
  1.6455854429   10   10   6   6
  0.0304947037   10   10   7   1
  0.0139499857   10   10   7   3
  1.4276901710   10   10   7   7
  -0.0478180574   10   10   8   5
  1.5405042008   10   10   8   8
  0.0199963612   10   10   9   2
  0.0859680092   10   10   9   4
  1.4657385866   10   10   9   9
  0.0616680441   10   10   10   6
  1.6822606933   10   10   10   10
  0.0009065726   11   1   5   1
  0.1022118591   11   1   5   3
  -0.1060252054   11   1   6   2
  -0.1108655960   11   1   6   4
  0.1700053787   11   1   7   5
  -0.1062324792   11   1   8   1
  0.1214075750   11   1   8   3
  0.0039401349   11   1   8   7
  0.0678324691   11   1   9   6
  -0.1325725176   11   1   10   2
  -0.0303301686   11   1   10   4
  0.0021991037   11   1   10   9
  0.2505408310   11   1   11   1
  0.1157147402   11   2   5   2
  0.1338410528   11   2   5   4
  -0.1175435692   11   2   6   1
  0.0319195315   11   2   6   3
  -0.1690391501   11   2   7   6
  0.0354032309   11   2   8   2
  -0.0835961934   11   2   8   4
  -0.0496085921   11   2   9   5
  0.0714432277   11   2   9   8
  -0.1590567885   11   2   10   1
  -0.0850659385   11   2   10   3
  -0.0110901777   11   2   10   7
  0.1986813071   11   2   11   2
  0.1283865092   11   3   5   1
  -0.1549673998   11   3   5   3
  0.0335405970   11   3   6   2
  -0.1212224441   11   3   6   4
  -0.0096303517   11   3   7   5
  0.1649224180   11   3   8   1
  0.0013159495   11   3   8   3
  -0.1720370411   11   3   8   7
  0.0422889070   11   3   9   6
  -0.1266243735   11   3   10   2
  0.0778583891   11   3   10   4
  -0.0719272084   11   3   10   9
  -0.0529681566   11   3   11   1
  0.1991778569   11   3   11   3
  0.1650396571   11   4   5   2
  0.0221083741   11   4   5   4
  -0.1694070492   11   4   6   1
  -0.1329352508   11   4   6   3
  -0.0117988491   11   4   7   6
  -0.1370101391   11   4   8   2
  0.1264912226   11   4   8   4
  -0.0031180795   11   4   9   5
  -0.0375046418   11   4   9   8
  -0.0380363099   11   4   10   1
  0.1326186231   11   4   10   3
  -0.1702468099   11   4   10   7
  0.0484076152   11   4   11   2
  0.1904270409   11   4   11   4
  0.0078030599   11   5   1   1
  0.1500046921   11   5   2   2
  0.1410285609   11   5   3   1
  -0.1071001931   11   5   3   3
  0.1099397821   11   5   4   2
  -0.0089437531   11   5   4   4
  0.0058993877   11   5   5   5
  0.1770309845   11   5   6   6
  0.2123225982   11   5   7   1
  0.0287658907   11   5   7   3
  0.0222493999   11   5   7   7
  -0.1707836455   11   5   8   5
  -0.2156453764   11   5   8   8
  -0.1224153941   11   5   9   2
  -0.0126647850   11   5   9   4
  0.0145343985   11   5   9   9
  0.2279721431   11   5   10   6
  0.1275966163   11   5   10   10
  0.4197302496   11   5   11   5
  -0.1971614213   11   6   2   1
  0.0225989986   11   6   3   2
  -0.2093972808   11   6   4   1
  -0.0697805852   11   6   4   3
  0.2217344136   11   6   6   5
  -0.2397231434   11   6   7   2
  0.0428937792   11   6   7   4
  0.0813742546   11   6   8   6
  0.0450622713   11   6   9   1
  0.1702926400   11   6   9   3
  0.0388156720   11   6   9   7
  0.3099956277   11   6   10   5
  -0.1159570448   11   6   10   8
  0.3449369579   11   6   11   6
  0.2664649908   11   7   5   1
  -0.0122027852   11   7   5   3
  -0.2507742997   11   7   6   2
  -0.0117124895   11   7   6   4
  0.0038957367   11   7   7   5
  0.0150964124   11   7   8   1
  -0.2432358052   11   7   8   3
  -0.0048381078   11   7   8   7
  0.0058495380   11   7   9   6
  -0.0208051152   11   7   10   2
  -0.2293370465   11   7   10   4
  0.0358132002   11   7   10   9
  0.0020375024   11   7   11   1
  0.0288136558   11   7   11   3
  0.2341125157   11   7   11   7
  -0.3128284798   11   8   1   1
  0.0009269964   11   8   2   2
  0.3101383626   11   8   3   1
  -0.0547424159   11   8   3   3
  -0.2508184451   11   8   4   2
  0.0110002776   11   8   4   4
  -0.3376011467   11   8   5   5
  0.0515033789   11   8   6   6
  0.0348503249   11   8   7   1
  -0.2923047723   11   8   7   3
  0.0598306023   11   8   7   7
  -0.3904194964   11   8   8   5
  -0.0562749231   11   8   8   8
  0.0136147944   11   8   9   2
  -0.2616870575   11   8   9   4
  0.0000000103   11   8   9   7
  -0.0937339305   11   8   9   9
  -0.2808035111   11   8   10   6
  0.0798001487   11   8   10   10
  0.1316979927   11   8   11   5
  0.4234578561   11   8   11   8
  -0.0810180196   11   9   5   2
  -0.0046673445   11   9   5   4
  0.0802068923   11   9   6   1
  0.0767963221   11   9   6   3
  0.0070646361   11   9   7   6
  0.0752681098   11   9   8   2
  -0.0740455236   11   9   8   4
  0.0015909276   11   9   9   5
  -0.0083596579   11   9   9   8
  0.0027229758   11   9   10   1
  -0.0698194588   11   9   10   3
  0.0676033944   11   9   10   7
  -0.0032802221   11   9   11   2
  -0.0566892662   11   9   11   4
  0.0653970066   11   9   11   9
  -0.4879355421   11   10   2   1
  -0.3814166441   11   10   3   2
  -0.0949563361   11   10   4   1
  0.3714334113   11   10   4   3
  0.5587844165   11   10   6   5
  -0.0861766459   11   10   7   2
  -0.3864426480   11   10   7   4
  -0.0000000131   11   10   7   7
  -0.4097184676   11   10   8   6
  0.0060213429   11   10   9   1
  0.0453417541   11   10   9   3
  0.4367094374   11   10   9   7
  0.0000000198   11   10   9   9
  0.1607464137   11   10   10   5
  0.4103274870   11   10   10   8
  0.1751427039   11   10   11   6
  0.5845432967   11   10   11   10
  1.7569197037   11   11   1   1
  1.5315476309   11   11   2   2
  -0.2182474413   11   11   3   1
  1.5104416482   11   11   3   3
  0.2246152210   11   11   4   2
  1.4834872486   11   11   4   4
  1.8573801557   11   11   5   5
  1.5936975316   11   11   6   6
  0.0134836715   11   11   7   1
  0.2172855925   11   11   7   3
  1.3990791568   11   11   7   7
  0.2693907615   11   11   8   5
  1.5872339568   11   11   8   8
  -0.0172761617   11   11   9   2
  0.1987260020   11   11   9   4
  -0.0000000162   11   11   9   7
  1.4641560316   11   11   9   9
  0.2862552830   11   11   10   6
  1.6015474574   11   11   10   10
  0.0078710503   11   11   11   5
  -0.2939910310   11   11   11   8
  1.9005080640   11   11   11   11
  -0.0006949880   12   1   1   1
  0.0072180917   12   1   2   2
  0.0065396798   12   1   3   1
  -0.0866589924   12   1   3   3
  0.0808085074   12   1   4   2
  0.0762619156   12   1   4   4
  -0.0006881982   12   1   5   5
  0.0588470954   12   1   6   6
  0.0505550799   12   1   7   1
  -0.0721508821   12   1   7   3
  -0.0071537281   12   1   7   7
  -0.0607148827   12   1   8   5
  -0.1760466361   12   1   8   8
  0.0662990488   12   1   9   2
  0.0054311029   12   1   9   4
  -0.0033692698   12   1   9   9
  0.1793071932   12   1   10   6
  0.1073664778   12   1   10   10
  0.2711458743   12   1   11   5
  0.1086432429   12   1   11   8
  -0.0019957799   12   1   11   11
  0.2401728354   12   1   12   1
  0.0148652013   12   2   2   1
  -0.1109500606   12   2   3   2
  0.1151039436   12   2   4   1
  -0.0268344386   12   2   4   3
  -0.0620913673   12   2   6   5
  -0.0445929889   12   2   7   2
  0.0561739425   12   2   7   4
  -0.1259544310   12   2   8   6
  0.1100459684   12   2   9   1
  0.0499305900   12   2   9   3
  0.0102652291   12   2   9   7
  -0.1953867556   12   2   10   5
  0.0694006165   12   2   10   8
  -0.1638931550   12   2   11   6
  -0.1088825192   12   2   11   10
  0.1940553701   12   2   12   2
  0.0234734981   12   3   1   1
  -0.1351232622   12   3   2   2
  -0.1543516094   12   3   3   1
  0.0022031812   12   3   3   3
  0.0107650835   12   3   4   2
  0.0396223780   12   3   4   4
  0.0666877838   12   3   5   5
  -0.1460926764   12   3   6   6
  -0.1275095524   12   3   7   1
  -0.0482306580   12   3   7   3
  0.0349761917   12   3   7   7
  0.2156612662   12   3   8   5
  -0.0024458524   12   3   8   8
  0.1336636552   12   3   9   2
  -0.0329670784   12   3   9   4
  -0.0126402714   12   3   9   9
  0.0769481048   12   3   10   6
  -0.0848592353   12   3   10   10
  -0.1446522295   12   3   11   5
  -0.1840541069   12   3   11   8
  0.1151933409   12   3   11   11
  -0.0518556691   12   3   12   1
  0.2028964009   12   3   12   3
  0.1979112540   12   4   2   1
  0.0253703124   12   4   3   2
  0.1660961912   12   4   4   1
  -0.0227462965   12   4   4   3
  -0.2475043008   12   4   6   5
  0.1529284702   12   4   7   2
  -0.0682414322   12   4   7   4
  0.0793477568   12   4   8   6
  0.0085114034   12   4   9   1
  -0.1762858417   12   4   9   3
  0.0128772648   12   4   9   7
  -0.1714785362   12   4   10   5
  -0.0888949625   12   4   10   8
  -0.1664937699   12   4   11   6
  -0.2136589397   12   4   11   10
  0.0505855482   12   4   12   2
  0.2106117493   12   4   12   4
  0.0002904349   12   5   5   1
  0.0580653591   12   5   5   3
  -0.0637724610   12   5   6   2
  -0.1357325288   12   5   6   4
  0.1330825877   12   5   7   5
  -0.0680128658   12   5   8   1
  0.1522871812   12   5   8   3
  0.0730759841   12   5   8   7
  -0.0306202668   12   5   9   6
  -0.1659339212   12   5   10   2
  -0.0922606904   12   5   10   4
  -0.0020704000   12   5   10   9
  0.2695883031   12   5   11   1
  -0.1031326976   12   5   11   3
  -0.0018136081   12   5   11   7
  0.3685791179   12   5   12   5
  -0.0728170058   12   6   5   2
  -0.1605259450   12   6   5   4
  0.0764028934   12   6   6   1
  -0.1067163845   12   6   6   3
  0.0604076372   12   6   7   6
  -0.1090463427   12   6   8   2
  0.0404448295   12   6   8   4
  -0.0536699355   12   6   9   5
  0.0183781609   12   6   9   8
  0.1954641879   12   6   10   1
  0.0539097492   12   6   10   3
  0.0706877905   12   6   10   7
  -0.1657863773   12   6   11   2
  -0.0957813758   12   6   11   4
  -0.0018972331   12   6   11   9
  0.2741091448   12   6   12   6
  0.1808886218   12   7   1   1
  -0.0274252864   12   7   2   2
  -0.2041844871   12   7   3   1
  -0.0253309226   12   7   3   3
  0.1916768891   12   7   4   2
  -0.0402262248   12   7   4   4
  0.2530713156   12   7   5   5
  0.0573308706   12   7   6   6
  -0.0135433650   12   7   7   1
  0.1818436112   12   7   7   3
  -0.1967470938   12   7   7   7
  0.1984727199   12   7   8   5
  0.0722609404   12   7   8   8
  0.0190630814   12   7   9   2
  0.2319027465   12   7   9   4
  -0.0923541781   12   7   9   9
  0.1896957408   12   7   10   6
  0.0891373045   12   7   10   10
  -0.0079864436   12   7   11   5
  -0.1864162824   12   7   11   8
  0.2611930935   12   7   11   11
  0.0014772606   12   7   12   1
  0.0419380783   12   7   12   3
  0.2379820745   12   7   12   7
  -0.0910018128   12   8   5   1
  0.1993112520   12   8   5   3
  -0.1180051901   12   8   6   2
  0.0714985583   12   8   6   4
  0.0977256190   12   8   7   5
  -0.2145849904   12   8   8   1
  0.0042815717   12   8   8   3
  0.0791241948   12   8   8   7
  0.0576991954   12   8   9   6
  0.0933723672   12   8   10   2
  -0.0489163421   12   8   10   4
  -0.0063880133   12   8   10   9
  0.1258361420   12   8   11   1
  -0.1769131208   12   8   11   3
  -0.0762536085   12   8   11   7
  0.1199071491   12   8   12   5