 &FCI NORB= 18,NELEC= ,MS0= ,
  ORBSYM=1,2,1,2,3,4,3,1,2,1,2,4,3,4,1,2,1,2,
  ISYM=1,
 /
  -29.5924443235707990140781476   1   1   0   0
  -27.4632331362771608951334201   2   2   0   0
  -1.5502656599678785731555308   3   1   0   0
  -26.4921670707123695365226013   3   3   0   0
  -2.2290230475747758731586146   4   2   0   0
  -25.9639374451285362965791137   4   4   0   0
  -25.3731799380423517220606300   5   5   0   0
  -23.4830198413148671932049183   6   6   0   0
  1.6223202457478209659313961   7   5   0   0
  -24.8750757020583357359555521   7   7   0   0
  -0.7735146853706833525166076   8   1   0   0
  1.7686851365926659074290228   8   3   0   0
  -24.3529652438562216332229582   8   8   0   0
  -0.3880876917247314539238801   9   2   0   0
  1.8607334531271984001676856   9   4   0   0
  -24.8208568142701189174204046   9   9   0   0
  -0.7687159221531477681921274   10   1   0   0
  -0.2538388835905627249900363   10   3   0   0
  -1.3650685950981213956367810   10   8   0   0
  -21.8668658926924095453614427   10   10   0   0
  -0.5053649125795817154127576   11   2   0   0
  -0.7484913776000943208543958   11   4   0   0
  -1.2089744840077580878556773   11   9   0   0
  -19.5564309647974674533088546   11   11   0   0
  -0.9319084837975972757107002   12   6   0   0
  -20.0751003202407503067661310   12   12   0   0
  -0.7888225350545923220124678   13   5   0   0
  -0.9472816165720121528437403   13   7   0   0
  -18.6830753196851624409191572   13   13   0   0
  -0.8060346257300454730909678   14   6   0   0
  1.6223478087978786543743581   14   12   0   0
  -20.5732107982301677395753359   14   14   0   0
  -0.1858315195577656675496314   15   1   0   0
  -0.3769466156231549014421489   15   3   0   0
  0.6198684760235408930384438   15   8   0   0
  -1.8403762860401235990082114   15   10   0   0
  -19.1395760317624805679770361   15   15   0   0
  -0.1930562789120521260954888   16   2   0   0
  -0.4192628800846623926545931   16   4   0   0
  0.2345818078176851173566320   16   9   0   0
  -1.8007828476758325209061695   16   11   0   0
  -17.6032252013849159766323282   16   16   0   0
  0.0007917729787120242335163   17   1   0   0
  0.1584348648169758844161947   17   3   0   0
  -0.4374512450081577963345580   17   8   0   0
  -0.4253263692843111121177913   17   10   0   0
  2.1174545080852209544275411   17   15   0   0
  -17.2448190271881784951801819   17   17   0   0
  0.0126352167391304837096300   18   2   0   0
  0.1664370585950784020567994   18   4   0   0
  -0.6183837847608920634812080   18   9   0   0
  -0.6920170895962013402069601   18   11   0   0
  1.5328850572593597512138786   18   16   0   0
  -18.4811540279242620954391896   18   18   0   0
  2.1100222697   1   1   1   1
  0.7122725157   2   1   2   1
  1.6958943900   2   2   1   1
  1.8478522885   2   2   2   2
  0.3838308921   3   1   1   1
  -0.1555083388   3   1   2   2
  0.5146998117   3   1   3   1
  -0.4758619390   3   2   2   1
  0.6083194947   3   2   3   2
  1.6995375875   3   3   1   1
  1.6073931242   3   3   2   2
  0.0903160711   3   3   3   1
  1.6899094584   3   3   3   3
  0.3121277959   4   1   2   1
  0.1153465687   4   1   3   2
  0.4985230217   4   1   4   1
  0.4409371854   4   2   1   1
  0.1109932277   4   2   2   2
  0.2993432254   4   2   3   1
  0.0036977880   4   2   3   3
  0.4798755531   4   2   4   2
  0.4086508602   4   3   2   1
  -0.3603389635   4   3   3   2
  0.0842221220   4   3   4   1
  0.5642520969   4   3   4   3
  1.8269040156   4   4   1   1
  1.6714029573   4   4   2   2
  0.1441413367   4   4   3   1
  1.6955776106   4   4   3   3
  0.1238613718   4   4   4   2
  1.9242013908   4   4   4   4
  0.3820329241   5   1   5   1
  0.2166229215   5   2   5   2
  0.1812658523   5   3   5   1
  0.4687090905   5   3   5   3
  -0.0577628861   5   4   5   2
  0.1508132527   5   4   5   4
  1.8954432564   5   5   1   1
  1.5192424389   5   5   2   2
  0.3617768661   5   5   3   1
  1.7238172740   5   5   3   3
  0.1831581606   5   5   4   2
  1.5811371794   5   5   4   4
  2.0869060545   5   5   5   5
  0.1998135046   6   1   5   2
  -0.0798522399   6   1   5   4
  0.1969388330   6   1   6   1
  0.1778993751   6   2   5   1
  -0.3106093667   6   2   5   3
  0.4928654532   6   2   6   2
  -0.2809145814   6   3   5   2
  0.1431809085   6   3   5   4
  -0.2716588222   6   3   6   1
  0.3988102290   6   3   6   3
  -0.0702445041   6   4   5   1
  0.1456930537   6   4   5   3
  -0.2040757484   6   4   6   2
  0.1751778994   6   4   6   4
  0.5181172171   6   5   2   1
  -0.5637686899   6   5   3   2
  -0.0120991443   6   5   4   1
  0.3805350705   6   5   4   3
  0.6329890794   6   5   6   5
  1.4207994883   6   6   1   1
  1.7640507507   6   6   2   2
  -0.3259772832   6   6   3   1
  1.5998979248   6   6   3   3
  -0.1713506375   6   6   4   2
  1.4663842193   6   6   4   4
  1.5109268880   6   6   5   5
  2.0675646590   6   6   6   6
  -0.1793976159   7   1   5   1
  -0.4133536769   7   1   5   3
  0.2594022877   7   1   6   2
  -0.0963031813   7   1   6   4
  0.3732515758   7   1   7   1
  0.2289521605   7   2   5   2
  -0.1313537995   7   2   5   4
  0.2351290708   7   2   6   1
  -0.3311803659   7   2   6   3
  0.2923680880   7   2   7   2
  -0.3635944019   7   3   5   1
  -0.0296461344   7   3   5   3
  -0.3128104083   7   3   6   2
  0.1569274652   7   3   6   4
  0.0553812677   7   3   7   1
  0.4062614712   7   3   7   3
  -0.1229641207   7   4   5   2
  0.0215842029   7   4   5   4
  -0.0862422445   7   4   6   1
  0.1566893708   7   4   6   3
  -0.0899639626   7   4   7   2
  0.1548766674   7   4   7   4
  -0.4076675301   7   5   1   1
  0.2107612389   7   5   2   2
  -0.5912007667   7   5   3   1
  -0.1066215558   7   5   3   3
  -0.3041891386   7   5   4   2
  -0.0988889179   7   5   4   4
  -0.4949952893   7   5   5   5
  0.4786339852   7   5   6   6
  0.8369624904   7   5   7   5
  0.6012600799   7   6   2   1
  -0.6560132669   7   6   3   2
  -0.0161101113   7   6   4   1
  0.4422066856   7   6   4   3
  0.7359132097   7   6   6   5
  0.8556016604   7   6   7   6
  1.7708740536   7   7   1   1
  1.5825665701   7   7   2   2
  0.1821971577   7   7   3   1
  1.6916451091   7   7   3   3
  0.0895685114   7   7   4   2
  1.5516316701   7   7   4   4
  1.9362840638   7   7   5   5
  1.6560061673   7   7   6   6
  -0.2408086387   7   7   7   5
  1.8628751449   7   7   7   7
  0.0859280276   8   1   1   1
  0.2356642077   8   1   2   2
  -0.1574899088   8   1   3   1
  -0.0743566663   8   1   3   3
  0.1962095431   8   1   4   2
  -0.0208693586   8   1   4   4
  -0.1221362145   8   1   5   5
  0.1131256879   8   1   6   6
  0.2027719567   8   1   7   5
  -0.0617082156   8   1   7   7
  0.3209955962   8   1   8   1
  0.2598405800   8   2   2   1
  -0.0211515958   8   2   3   2
  0.2823230664   8   2   4   1
  -0.2126633747   8   2   4   3
  0.0611496416   8   2   6   5
  0.0697476282   8   2   7   6
  0.5059156712   8   2   8   2
  -0.3410745547   8   3   1   1
  -0.0600473933   8   3   2   2
  -0.2580185251   8   3   3   1
  0.0009208095   8   3   3   3
  -0.3866217142   8   3   4   2
  0.0614730562   8   3   4   4
  -0.2992410835   8   3   5   5
  0.0616690809   8   3   6   6
  0.3095392172   8   3   7   5
  -0.2036961219   8   3   7   7
  -0.1545968092   8   3   8   1
  0.4403148053   8   3   8   3
  0.5097485861   8   4   2   1
  -0.5605572068   8   4   3   2
  -0.0276675275   8   4   4   1
  0.4344641029   8   4   4   3
  0.4324279270   8   4   6   5
  0.5037089515   8   4   7   6
  -0.0196360507   8   4   8   2
  0.6905146053   8   4   8   4
  -0.1746188226   8   5   5   1
  -0.1778169812   8   5   5   3
  0.0315388009   8   5   6   2
  0.0744759117   8   5   6   4
  0.1902563035   8   5   7   1
  0.1564279673   8   5   7   3
  0.1993159171   8   5   8   5
  0.0142138174   8   6   5   2
  0.0766827378   8   6   5   4
  0.0296692176   8   6   6   1
  0.0258717125   8   6   6   3
  0.0175054831   8   6   7   2
  0.0942421859   8   6   7   4
  0.1898650755   8   6   8   6
  0.1665712294   8   7   5   1
  0.1645608051   8   7   5   3
  0.0040384025   8   7   6   2
  0.0956965378   8   7   6   4
  -0.1249111159   8   7   7   1
  -0.1010544512   8   7   7   3
  -0.0019474921   8   7   8   5
  0.1866291261   8   7   8   7
  1.6359997476   8   8   1   1
  1.7898913296   8   8   2   2
  -0.1543892274   8   8   3   1
  1.6263349621   8   8   3   3
  0.0138093757   8   8   4   2
  1.7199482006   8   8   4   4
  1.4950230085   8   8   5   5
  1.5889591117   8   8   6   6
  0.0808573081   8   8   7   5
  1.5193482541   8   8   7   7
  0.1503522670   8   8   8   1
  0.0645442552   8   8   8   3
  1.9174335018   8   8   8   8
  -0.0158530215   9   1   2   1
  -0.1575299973   9   1   3   2
  -0.1980552147   9   1   4   1
  -0.2700617626   9   1   4   3
  0.0775715325   9   1   6   5
  0.0910440693   9   1   7   6
  0.2284387324   9   1   8   2
  0.0618255121   9   1   8   4
  0.4214052647   9   1   9   1
  0.0034222899   9   2   1   1
  0.1881570985   9   2   2   2
  -0.1863546874   9   2   3   1
  -0.0765973591   9   2   3   3
  0.1168702886   9   2   4   2
  -0.1765737666   9   2   4   4
  -0.0163299462   9   2   5   5
  0.1855848200   9   2   6   6
  0.1742226757   9   2   7   5
  0.0351745018   9   2   7   7
  0.2815500859   9   2   8   1
  -0.1995970421   9   2   8   3
  0.0971841386   9   2   8   8
  0.3494502529   9   2   9   2
  -0.2514646917   9   3   2   1
  -0.0714490021   9   3   3   2
  -0.3830292577   9   3   4   1
  -0.0096191877   9   3   4   3
  -0.0774540324   9   3   6   5
  -0.0876196775   9   3   7   6
  -0.2947254838   9   3   8   2
  0.1286135902   9   3   8   4
  0.0984110639   9   3   9   1
  0.3950317817   9   3   9   3
  -0.4293780965   9   4   1   1
  0.0900312209   9   4   2   2
  -0.4927020009   9   4   3   1
  -0.0717144887   9   4   3   3
  -0.3780295304   9   4   4   2
  -0.1420620295   9   4   4   4
  -0.3222753087   9   4   5   5
  0.1734903910   9   4   6   6
  0.4259458773   9   4   7   5
  -0.1924173383   9   4   7   7
  0.0750056737   9   4   8   1
  0.3275182823   9   4   8   3
  0.2493440452   9   4   8   8
  0.1290109174   9   4   9   2
  0.6252869314   9   4   9   4
  0.0233134960   9   5   5   2
  -0.0877751138   9   5   5   4
  0.0731197570   9   5   6   1
  -0.0672494636   9   5   6   3
  0.1157102149   9   5   7   2
  0.1134705317   9   5   7   4
  0.1083958848   9   5   8   6
  0.2226289231   9   5   9   5
  0.0554234443   9   6   5   1
  -0.0740171876   9   6   5   3
  0.1470167104   9   6   6   2
  0.0462534731   9   6   6   4
  0.0919408877   9   6   7   1
  -0.0596018308   9   6   7   3
  0.1138212211   9   6   8   5
  0.1153828406   9   6   8   7
  0.1704222281   9   6   9   6
  0.1028501129   9   7   5   2
  0.1116417896   9   7   5   4
  0.0744574656   9   7   6   1
  -0.0624641778   9   7   6   3
  0.0459124248   9   7   7   2
  -0.0467225740   9   7   7   4
  0.1193932985   9   7   8   6
  -0.0396681702   9   7   9   5
  0.1980316693   9   7   9   7
  0.6266632737   9   8   2   1
  -0.5446707605   9   8   3   2
  0.1358054715   9   8   4   1
  0.4468127500   9   8   4   3
  0.4865240509   9   8   6   5
  0.5644935865   9   8   7   6
  0.1162194453   9   8   8   2
  0.6115847552   9   8   8   4
  0.0186770768   9   8   9   1
  -0.0843368200   9   8   9   3
  0.6992615617   9   8   9   8
  1.9629247792   9   9   1   1
  1.6987191915   9   9   2   2
  0.2444002050   9   9   3   1
  1.6897350173   9   9   3   3
  0.2919444059   9   9   4   2
  1.8386911255   9   9   4   4
  1.7378175206   9   9   5   5
  1.4669345810   9   9   6   6
  -0.2324376140   9   9   7   5
  1.6663129725   9   9   7   7
  0.0603832084   9   9   8   1
  -0.1769150444   9   9   8   3
  1.6844109361   9   9   8   8
  -0.0366682617   9   9   9   2
  -0.2802958302   9   9   9   4
  1.9263845530   9   9   9   9
  0.1611139767   10   1   1   1
  0.1194545782   10   1   2   2
  0.0294285270   10   1   3   1
  -0.0065444505   10   1   3   3
  0.1710433296   10   1   4   2
  0.2785680240   10   1   4   4
  -0.2083664127   10   1   5   5
  -0.1230599926   10   1   6   6
  0.0732079972   10   1   7   5
  -0.1858645297   10   1   7   7
  0.1176362386   10   1   8   1
  0.0597351580   10   1   8   3
  0.1259054836   10   1   8   8
  -0.0811711196   10   1   9   2
  -0.0791927520   10   1   9   4
  0.1855682498   10   1   9   9
  0.3752088476   10   1   10   1
  0.1015386972   10   2   2   1
  0.0651967746   10   2   3   2
  0.1851705836   10   2   4   1
  0.0880883826   10   2   4   3
  -0.1454748847   10   2   6   5
  -0.1687775699   10   2   7   6
  0.0190256884   10   2   8   2
  0.1564030377   10   2   8   4
  -0.1229375674   10   2   9   1
  0.0059943555   10   2   9   3
  0.0966261706   10   2   9   8
  0.2931193641   10   2   10   2
  0.0226650080   10   3   1   1
  0.1026808239   10   3   2   2
  -0.0804290263   10   3   3   1
  -0.0326329213   10   3   3   3
  0.0725174507   10   3   4   2
  -0.0024307367   10   3   4   4
  -0.0998364284   10   3   5   5
  0.2281150997   10   3   6   6
  0.2821502857   10   3   7   5
  -0.0146506972   10   3   7   7
  0.1221199337   10   3   8   1
  -0.0529628397   10   3   8   3
  -0.1065467917   10   3   8   8
  0.0819577322   10   3   9   2
  -0.1256225539   10   3   9   4
  0.0247418165   10   3   9   9
  0.0800018507   10   3   10   1
  0.2811455767   10   3   10   3
  0.2562906010   10   4   2   1
  0.0490025004   10   4   3   2
  0.3522341473   10   4   4   1
  0.0248963682   10   4   4   3
  0.0753481724   10   4   6   5
  0.0877908856   10   4   7   6
  0.2534036601   10   4   8   2
  -0.0202473891   10   4   8   4
  -0.0813541440   10   4   9   1
  -0.2669296773   10   4   9   3
  0.0076202545   10   4   9   8
  0.1175333171   10   4   10   2
  0.4445484540   10   4   10   4
  -0.3204769258   10   5   5   1
  -0.1215957542   10   5   5   3
  -0.1840120236   10   5   6   2
  0.0536697563   10   5   6   4
  0.1183388270   10   5   7   1
  0.3106081953   10   5   7   3
  0.1173616702   10   5   8   5
  -0.1543680337   10   5   8   7
  -0.0801589212   10   5   9   6
  0.2761103023   10   5   10   5
  -0.2002927326   10   6   5   2
  0.0622691974   10   6   5   4
  -0.2008065146   10   6   6   1
  0.2625548466   10   6   6   3
  -0.2358828726   10   6   7   2
  0.0647336569   10   6   7   4
  -0.0703282362   10   6   8   6
  -0.0956412595   10   6   9   5
  -0.0992736406   10   6   9   7
  0.2134133429   10   6   10   6
  0.1248478611   10   7   5   1
  0.3561963638   10   7   5   3
  -0.2555485182   10   7   6   2
  0.0739996153   10   7   6   4
  -0.3262808385   10   7   7   1
  -0.0203799358   10   7   7   3
  -0.1771315501   10   7   8   5
  0.0746753836   10   7   8   7
  -0.1149641752   10   7   9   6
  -0.0706697573   10   7   10   5
  0.2936467042   10   7   10   7
  0.2709193035   10   8   1   1
  0.0385682674   10   8   2   2
  0.2121865953   10   8   3   1
  0.0070200486   10   8   3   3
  0.2851424076   10   8   4   2
  0.0251604706   10   8   4   4
  0.2152673348   10   8   5   5
  -0.1042903857   10   8   6   6
  -0.2749021704   10   8   7   5
  0.1322124729   10   8   7   7
  0.0934672562   10   8   8   1
  -0.2647931009   10   8   8   3
  -0.0201189249   10   8   8   8
  0.0813163954   10   8   9   2
  -0.2176241553   10   8   9   4
  0.0787721825   10   8   9   9
  0.0330585454   10   8   10   1
  -0.0115761821   10   8   10   3
  0.3603183559   10   8   10   8
  -0.2812153687   10   9   2   1
  0.2060490781   10   9   3   2
  -0.1023950584   10   9   4   1
  -0.3103278164   10   9   4   3
  -0.2434355002   10   9   6   5
  -0.2832028529   10   9   7   6
  0.0609450395   10   9   8   2
  -0.2455810418   10   9   8   4
  0.1444730736   10   9   9   1
  0.0476966819   10   9   9   3
  -0.2430889425   10   9   9   8
  -0.0649542775   10   9   10   2
  -0.1168531628   10   9   10   4
  0.4545858867   10   9   10   9
  1.9629247792   10   10   1   1
  1.6987191915   10   10   2   2
  0.2444002050   10   10   3   1
  1.6897350173   10   10   3   3
  0.2919444059   10   10   4   2
  1.8386911255   10   10   4   4
  1.7378175206   10   10   5   5
  1.4669345810   10   10   6   6
  -0.2324376140   10   10   7   5
  1.6663129725   10   10   7   7
  0.0603832084   10   10   8   1
  -0.1769150444   10   10   8   3
  1.6844109361   10   10   8   8
  -0.0366682617   10   10   9   2
  -0.2802958302   10   10   9   4
  1.9263845530   10   10   9   9
  0.1855682498   10   10   10   1
  0.0247418165   10   10   10   3
  0.0787721825   10   10   10   8
  1.9263845530   10   10   10   10
  0.0860786306   11   1   2   1
  -0.0279757781   11   1   3   2
  0.0616492302   11   1   4   1
  -0.0511401968   11   1   4   3
  -0.0897340128   11   1   6   5
  -0.1035149778   11   1   7   6
  0.1272243425   11   1   8   2
  0.1842182703   11   1   8   4
  0.1032119565   11   1   9   1
  0.0637228107   11   1   9   3
  0.1031699062   11   1   9   8
  0.2071003306   11   1   10   2
  0.0611447993   11   1   10   4
  0.0116839982   11   1   10   9
  0.2442400006   11   1   11   1
  0.1010657558   11   2   1   1
  0.0991475365   11   2   2   2
  -0.0078705557   11   2   3   1
  -0.0129445188   11   2   3   3
  0.1161109849   11   2   4   2
  0.1681484908   11   2   4   4
  -0.1209353751   11   2   5   5
  -0.2357712380   11   2   6   6
  -0.0987513283   11   2   7   5
  -0.1508510077   11   2   7   7
  0.1195802092   11   2   8   1
  0.0343529282   11   2   8   3
  0.2724277063   11   2   8   8
  0.0110514674   11   2   9   2
  0.1394713010   11   2   9   4
  0.1154166896   11   2   9   9
  0.2230591398   11   2   10   1
  -0.1641253945   11   2   10   3
  0.0574847987   11   2   10   8
  0.1154166896   11   2   10   10
  0.3695817714   11   2   11   2
  -0.0127222429   11   3   2   1
  -0.0510271168   11   3   3   2
  -0.0718597844   11   3   4   1
  -0.0835284162   11   3   4   3
  0.1615064478   11   3   6   5
  0.1887094266   11   3   7   6
  0.0599182267   11   3   8   2
  -0.1177026998   11   3   8   4
  0.1080229113   11   3   9   1
  -0.0416888139   11   3   9   3
  -0.1351042347   11   3   9   8
  -0.1898596105   11   3   10   2
  0.1253628083   11   3   10   4
  -0.0029763838   11   3   10   9
  -0.1206113837   11   3   11   1
  0.2713646365   11   3   11   3
  0.1013468655   11   4   1   1
  0.1650597876   11   4   2   2
  -0.0724595590   11   4   3   1
  -0.0522688420   11   4   3   3
  0.1808468777   11   4   4   2
  -0.0415962735   11   4   4   4
  -0.0095734466   11   4   5   5
  0.1626077972   11   4   6   6
  0.1479344885   11   4   7   5
  0.0355231221   11   4   7   7
  0.2306601299   11   4   8   1
  -0.1681027452   11   4   8   3
  0.0021439614   11   4   8   8
  0.2102096890   11   4   9   2
  -0.0468663303   11   4   9   4
  -0.0211530084   11   4   9   9
  0.0628564460   11   4   10   1
  0.1677437949   11   4   10   3
  0.2499146564   11   4   10   8
  -0.0211530084   11   4   10   10
  -0.0180678256   11   4   11   2
  0.3647657129   11   4   11   4
  -0.1795650136   11   5   5   2
  -0.0092531069   11   5   5   4
  -0.1441753633   11   5   6   1
  0.2052318499   11   5   6   3
  -0.1461045957   11   5   7   2
  0.1411640807   11   5   7   4
  -0.0010507329   11   5   8   6
  0.0642782768   11   5   9   5
  -0.1344325938   11   5   9   7
  0.1425127273   11   5   10   6
  0.1871045970   11   5   11   5
  -0.1313584531   11   6   5   1
  0.2301634815   11   6   5   3
  -0.3634505906   11   6   6   2
  0.1587590927   11   6   6   4
  -0.1898611503   11   6   7   1
  0.2335553539   11   6   7   3
  -0.0149875865   11   6   8   5
  0.0056555453   11   6   8   7
  -0.0986422572   11   6   9   6
  0.1340258416   11   6   10   5
  0.1852147975   11   6   10   7
  0.2687717803   11   6   11   6
  -0.1518903413   11   7   5   2
  0.1484084938   11   7   5   4
  -0.1749107145   11   7   6   1
  0.2498053344   11   7   6   3
  -0.2352114707   11   7   7   2
  0.0313706922   11   7   7   4
  -0.0053022695   11   7   8   6
  -0.1467983268   11   7   9   5
  0.0260628207   11   7   9   7
  0.1738184283   11   7   10   6
  0.0615460319   11   7   11   5
  0.2175487840   11   7   11   7
  0.1623702971   11   8   2   1
  0.0787061061   11   8   3   2
  0.2758991059   11   8   4   1
  -0.1522130631   11   8   4   3
  -0.0100718532   11   8   6   5
  -0.0121103288   11   8   7   6
  0.3479078776   11   8   8   2
  -0.0801997689   11   8   8   4
  0.0800876729   11   8   9   1
  -0.2411093481   11   8   9   3
  -0.0181319509   11   8   9   8
  0.0655845330   11   8   10   2
  0.3122030732   11   8   10   4
  0.2690693146   11   8   10   9
  0.0950313362   11   8   11   1
  0.0845945169   11   8   11   3
  0.5660585011   11   8   11   8
  0.2709193035   11   9   1   1
  0.0385682674   11   9   2   2
  0.2121865953   11   9   3   1
  0.0070200486   11   9   3   3
  0.2851424076   11   9   4   2
  0.0251604706   11   9   4   4
  0.2152673348   11   9   5   5
  -0.1042903857   11   9   6   6
  -0.2749021704   11   9   7   5
  0.1322124729   11   9   7   7
  0.0934672562   11   9   8   1
  -0.2647931009   11   9   8   3
  -0.0201189249   11   9   8   8
  0.0813163954   11   9   9   2
  -0.2176241553   11   9   9   4
  0.0787721825   11   9   9   9
  0.0330585454   11   9   10   1
  -0.0115761821   11   9   10   3
  0.3603183559   11   9   10   8
  0.0787721825   11   9   10   10
  0.0574847987   11   9   11   2
  0.2499146564   11   9   11   4
  0.3603183559   11   9   11   9
  0.6266632737   11   10   2   1
  -0.5446707605   11   10   3   2
  0.1358054715   11   10   4   1
  0.4468127500   11   10   4   3
  0.4865240509   11   10   6   5
  0.5644935865   11   10   7   6
  0.1162194453   11   10   8   2
  0.6115847552   11   10   8   4
  0.0186770768   11   10   9   1
  -0.0843368200   11   10   9   3
  0.6992615617   11   10   9   8
  0.0966261706   11   10   10   2
  0.0076202545   11   10   10   4
  -0.2430889425   11   10   10   9
  0.1031699062   11   10   11   1
  -0.1351042347   11   10   11   3
  -0.0181319509   11   10   11   8
  0.6992615617   11   10   11   10
  1.6359997476   11   11   1   1
  1.7898913296   11   11   2   2
  -0.1543892274   11   11   3   1
  1.6263349621   11   11   3   3
  0.0138093757   11   11   4   2
  1.7199482006   11   11   4   4
  1.4950230085   11   11   5   5
  1.5889591117   11   11   6   6
  0.0808573081   11   11   7   5
  1.5193482541   11   11   7   7
  0.1503522670   11   11   8   1
  0.0645442552   11   11   8   3
  1.9174335018   11   11   8   8
  0.0971841386   11   11   9   2
  0.2493440452   11   11   9   4
  1.6844109361   11   11   9   9
  0.1259054836   11   11   10   1
  -0.1065467917   11   11   10   3
  -0.0201189249   11   11   10   8
  1.6844109361   11   11   10   10
  0.2724277063   11   11   11   2
  0.0021439614   11   11   11   4
  -0.0201189249   11   11   11   9
  1.9174335018   11   11   11   11
  0.0734612090   12   1   5   2
  0.1526602898   12   1   5   4
  0.0368028550   12   1   6   1
  -0.0080876527   12   1   6   3
  -0.0078976395   12   1   7   2
  -0.0463774687   12   1   7   4
  0.1195841600   12   1   8   6
  -0.0821915799   12   1   9   5
  0.2144142512   12   1   9   7
  -0.0621393547   12   1   10   6
  -0.1296454974   12   1   11   5
  0.0805285350   12   1   11   7
  0.2451103665   12   1   12   1
  0.0841322526   12   2   5   1
  0.0578952009   12   2   5   3
  0.0415717270   12   2   6   2
  0.1155247938   12   2   6   4
  -0.0170596276   12   2   7   1
  -0.0370770563   12   2   7   3
  0.0925864053   12   2   8   5
  0.1754597045   12   2   8   7
  0.1688779695   12   2   9   6
  -0.0995997780   12   2   10   5
  -0.0240623172   12   2   10   7
  -0.0186492362   12   2   11   6
  0.2107564606   12   2   12   2
  0.0541124008   12   3   5   2
  0.0199042661   12   3   5   4
  -0.0031910856   12   3   6   1
  -0.0582067739   12   3   6   3
  -0.0240763192   12   3   7   2
  -0.1897450427   12   3   7   4
  -0.1782989992   12   3   8   6
  -0.2375008425   12   3   9   5
  0.0179542904   12   3   9   7
  0.0417269516   12   3   10   6
  -0.1233908560   12   3   11   5
  0.0746478174   12   3   11   7
  0.0442531795   12   3   12   1
  0.3121166500   12   3   12   3
  0.2120616168   12   4   5   1
  0.0340630627   12   4   5   3
  0.1570337961   12   4   6   2
  -0.1310578336   12   4   6   4
  -0.0613202256   12   4   7   1
  -0.2447083792   12   4   7   3
  -0.1477665299   12   4   8   5
  0.0106038489   12   4   8   7
  -0.0320077377   12   4   9   6
  -0.1680527140   12   4   10   5
  0.0502180038   12   4   10   7
  -0.1220621090   12   4   11   6
  -0.0515553896   12   4   12   2
  0.1765727245   12   4   12   4
  0.1832230101   12   5   2   1
  0.0387677762   12   5   3   2
  0.2732016306   12   5   4   1
  0.0532166298   12   5   4   3
  0.0431432001   12   5   6   5
  0.0462912800   12   5   7   6
  0.1845089625   12   5   8   2
  -0.1003458601   12   5   8   4
  -0.1099463335   12   5   9   1
  -0.3308953079   12   5   9   3
  0.1859334537   12   5   9   8
  -0.0570542969   12   5   10   2
  -0.0204868198   12   5   10   4
  0.0081737764   12   5   10   9
  -0.1146998759   12   5   11   1
  -0.1153025337   12   5   11   3
  0.0530543575   12   5   11   8
  0.1859334537   12   5   11   10
  0.5214568524   12   5   12   5
  0.1429214307   12   6   1   1
  0.0941190529   12   6   2   2
  0.0402419259   12   6   3   1
  -0.0262077525   12   6   3   3
  0.2064395870   12   6   4   2
  -0.0763028799   12   6   4   4
  0.0750376516   12   6   5   5
  0.0154237699   12   6   6   6
  -0.0500754861   12   6   7   5
  0.0572970186   12   6   7   7
  0.1678623598   12   6   8   1
  -0.2583015941   12   6   8   3
  0.0312242991   12   6   8   8
  0.2090426533   12   6   9   2
  -0.1030930527   12   6   9   4
  0.1562849345   12   6   9   9
  -0.0462569387   12   6   10   1
  0.0616742153   12   6   10   3
  -0.0511294921   12   6   10   8
  0.1562849345   12   6   10   10
  -0.0058323024   12   6   11   2
  -0.0351551916   12   6   11   4
  -0.0511294921   12   6   11   9
  0.0312242991   12   6   11   11
  0.3979809571   12   6   12   6
  -0.0690068126   12   7   2   1
  0.0216671098   12   7   3   2
  -0.0616695035   12   7   4   1
  -0.2673201295   12   7   4   3
  -0.0523969084   12   7   6   5
  -0.0602568389   12   7   7   6
  0.2017458431   12   7   8   2
  -0.0699573686   12   7   8   4
  0.2599019379   12   7   9   1
  0.0190439632   12   7   9   3
  -0.1027057617   12   7   9   8
  -0.0473748772   12   7   10   2
  0.0330866964   12   7   10   4
  -0.1307469040   12   7   10   9
  0.0875933147   12   7   11   1
  0.0898353794   12   7   11   3
  -0.1266771760   12   7   11   8
  -0.1027057617   12   7   11   10
  -0.0920440085   12   7   12   5
  0.4579526071   12   7   12   7
  0.1518903413   12   8   5   2
  -0.1484084938   12   8   5   4
  0.1749107145   12   8   6   1
  -0.2498053344   12   8   6   3
  0.2352114707   12   8   7   2
  -0.0313706922   12   8   7   4
  0.0053022695   12   8   8   6
  0.1467983268   12   8   9   5
  -0.0260628207   12   8   9   7
  -0.1738184283   12   8   10   6
  -0.0615460319   12   8   11   5
  -0.2175487840   12   8   11   7
  -0.0805285350   12   8   12   1
  -0.0746478174   12   8   12   3
  0.2175487840   12   8   12   8
  -0.1248478611   12   9   5   1
  -0.3561963638   12   9   5   3
  0.2555485182   12   9   6   2
  -0.0739996153   12   9   6   4
  0.3262808385   12   9   7   1
  0.0203799358   12   9   7   3
  0.1771315501   12   9   8   5
  -0.0746753836   12   9   8   7
  0.1149641752   12   9   9   6
  0.0706697573   12   9   10   5
  -0.2936467042   12   9   10   7
  -0.1852147975   12   9   11   6
  0.0240623172   12   9   12   2
  -0.0502180038   12   9   12   4
  0.2936467042   12   9   12   9
  -0.1028501129   12   10   5   2
  -0.1116417896   12   10   5   4
  -0.0744574656   12   10   6   1
  0.0624641778   12   10   6   3
  -0.0459124248   12   10   7   2
  0.0467225740   12   10   7   4
  -0.1193932985   12   10   8   6
  0.0396681702   12   10   9   5
  -0.1980316693   12   10   9   7
  0.0992736406   12   10   10   6
  0.1344325938   12   10   11   5
  -0.0260628207   12   10   11   7
  -0.2144142512   12   10   12   1
  -0.0179542904   12   10   12   3
  0.0260628207   12   10   12   8
  0.1980316693   12   10   12   10
  -0.1665712294   12   11   5   1
  -0.1645608051   12   11   5   3
  -0.0040384025   12   11   6   2
  -0.0956965378   12   11   6   4
  0.1249111159   12   11   7   1
  0.1010544512   12   11   7   3
  0.0019474921   12   11   8   5
  -0.1866291261   12   11   8   7
  -0.1153828406   12   11   9   6
  0.1543680337   12   11   10   5
  -0.0746753836   12   11   10   7
  -0.0056555453   12   11   11   6
  -0.1754597045   12   11   12   2
  -0.0106038489   12   11   12   4
  0.0746753836   12   11   12   9
  0.1866291261   12   11   12   11
  1.7708740536   12   12   1   1
  1.5825665701   12   12   2   2
  0.1821971577   12   12   3   1
  1.6916451091   12   12   3   3
  0.0895685114   12   12   4   2
  1.5516316701   12   12   4   4
  1.9362840638   12   12   5   5
  1.6560061673   12   12   6   6
  -0.2408086387   12   12   7   5
  1.8628751449   12   12   7   7
  -0.0617082156   12   12   8   1
  -0.2036961219   12   12   8   3
  1.5193482541   12   12   8   8
  0.0351745018   12   12   9   2
  -0.1924173383   12   12   9   4
  1.6663129725   12   12   9   9
  -0.1858645297   12   12   10   1
  -0.0146506972   12   12   10   3
  0.1322124729   12   12   10   8
  1.6663129725   12   12   10   10
  -0.1508510077   12   12   11   2
  0.0355231221   12   12   11   4
  0.1322124729   12   12   11   9
  1.5193482541   12   12   11   11
  0.0572970186   12   12   12   6
  1.8628751449   12   12   12   12
  0.0273220427   13   1   5   1
  -0.0246427539   13   1   5   3
  0.0693538510   13   1   6   2
  0.0816256838   13   1   6   4
  0.0516232365   13   1   7   1
  -0.0091885992   13   1   7   3
  0.1120685393   13   1   8   5
  0.1181022026   13   1   8   7
  0.1510555643   13   1   9   6
  -0.0518103530   13   1   10   5