 &FCI NORB= 20,NELEC= ,MS0= ,
  ORBSYM=1,2,1,2,1,2,1,2,1,2,1,2,1,2,1,2,1,2,1,2,
  ISYM=1,
 /
  -59.3588533445456221215863479   1   1   0   0
  -56.3658494969964181109389756   2   2   0   0
  2.8312564024300059806193985   3   1   0   0
  -55.0620505021567936410065158   3   3   0   0
  3.8654442541414502088059635   4   2   0   0
  -54.1550074534036127715808107   4   4   0   0
  1.0199513503917154721989391   5   1   0   0
  4.4003635482913461274279143   5   3   0   0
  -53.3524869950633870985257090   5   5   0   0
  -1.5278411036318488847030039   6   2   0   0
  -4.7306143244451952512008575   6   4   0   0
  -52.5604898564770337543450296   6   6   0   0
  0.4963092145412899003353857   7   1   0   0
  1.8109800976124164062497357   7   3   0   0
  4.9501542375522626926453995   7   5   0   0
  -51.7717512484911921433194948   7   7   0   0
  -0.7518272881006127228431524   8   2   0   0
  -1.9464674730948277048270256   8   4   0   0
  5.0565110629267024933142238   8   6   0   0
  -51.1051073028238462825356692   8   8   0   0
  0.2385969173065464743466180   9   1   0   0
  0.8266015834473511292301851   9   3   0   0
  1.8942774111068896303322617   9   5   0   0
  4.8960056624207695108452754   9   7   0   0
  -51.0870279140664607098187844   9   9   0   0
  -0.2629043994520786076130037   10   2   0   0
  -0.6466257980918582726204136   10   4   0   0
  1.4316899497808901475792709   10   6   0   0
  3.8840319220519354814769031   10   8   0   0
  -53.9487328973048931857192656   10   10   0   0
  0.0617428463385382708672466   11   1   0   0
  0.2083150069970933770946431   11   3   0   0
  0.4447146962115317014863081   11   5   0   0
  0.9487720009762076189829827   11   7   0   0
  2.6761447977003269826923315   11   9   0   0
  -52.8416003376757359433213423   11   11   0   0
  -0.2023703558451533934814393   12   2   0   0
  -0.4873946991245732274222746   12   4   0   0
  1.0322334100274064283553344   12   6   0   0
  2.6864436842239092229078778   12   8   0   0
  2.1021008256747362175076432   12   10   0   0
  -48.9149940811542336405182141   12   12   0   0
  0.1093883988283493313709016   13   1   0   0
  0.3733106543192226123295541   13   3   0   0
  0.8261465576520510278868414   13   5   0   0
  2.1023681983473694323549807   13   7   0   0
  1.9343058490596134468830769   13   9   0   0
  3.7847188572960250851906494   13   11   0   0
  -47.6412403193241402732382994   13   13   0   0
  -0.2354203870919556740304301   14   2   0   0
  -0.5920521280942823150184040   14   4   0   0
  1.5383093369573384023851759   14   6   0   0
  1.3456271766957450530810547   14   8   0   0
  0.7721336010172105135396237   14   10   0   0
  4.7688321045735619918559678   14   12   0   0
  -47.0162648882802827188243100   14   14   0   0
  0.1109420109865203452059745   15   1   0   0
  0.3961677479423204584207951   15   3   0   0
  1.1023521008463459391890638   15   5   0   0
  0.8515872631168279749402927   15   7   0   0
  0.7998467580922752340200077   15   9   0   0
  1.3647719238010542763817057   15   11   0   0
  4.9460658134384516415593680   15   13   0   0
  -46.6056956154189165886236879   15   15   0   0
  -0.2419126435624913140642889   16   2   0   0
  -0.7795232969914989151760665   16   4   0   0
  0.5153218804237706951454356   16   6   0   0
  0.5982979728260546803397801   16   8   0   0
  0.3558848579548183899134983   16   10   0   0
  1.8143399664926962433497692   16   12   0   0
  4.8682898998068342422129717   16   14   0   0
  -46.3333225569755740025357227   16   16   0   0
  0.1168755138988766817398357   17   1   0   0
  0.5382838895020563008131376   17   3   0   0
  0.3026063338230013943785934   17   5   0   0
  0.3949031723187195197510846   17   7   0   0
  0.3730106811361189045328501   17   9   0   0
  0.6075348012481570636467154   17   11   0   0
  1.8809819440919723909644290   17   13   0   0
  4.6757696209659824759796720   17   15   0   0
  -46.2326784655959741598962864   17   17   0   0
  -0.3510003366458417928264168   18   2   0   0
  -0.1738963124022426809389685   18   4   0   0
  0.2404792675107337851514444   18   6   0   0
  0.2690874755618876124074745   18   8   0   0
  0.1633519779056378795623061   18   10   0   0
  0.7835265248643686897267457   18   12   0   0
  1.7664087700468105168738475   18   14   0   0
  4.3672687818883808574810246   18   16   0   0
  -46.4171878635901222764914564   18   18   0   0
  -0.1917440132292209109543535   19   1   0   0
  -0.0989335777980123176611471   19   3   0   0
  -0.1324193152091249769952697   19   5   0   0
  -0.1579778531527471496787030   19   7   0   0
  -0.1523527873609930027853920   19   9   0   0
  -0.2449085503086943504946760   19   11   0   0
  -0.7216294867810553181897149   19   13   0   0
  -1.5023765829840696195418559   19   15   0   0
  -3.8484422205667585537014475   19   17   0   0
  -47.1940208344471443524525966   19   19   0   0
  -0.0533105144576483391816168   20   2   0   0
  -0.0572929927273880812421680   20   4   0   0
  0.0686156968005496858964420   20   6   0   0
  0.0780022249822566182686501   20   8   0   0
  0.0478265518421733260012729   20   10   0   0
  0.2250077157742880751278847   20   12   0   0
  0.4822371813782070915088696   20   14   0   0
  1.0094591479418342228058236   20   16   0   0
  2.8251298617671212198843023   20   18   0   0
  -49.8664491797792095439945115   20   20   0   0
  3.9934887123   1   1   1   1
  1.4908323161   2   1   2   1
  3.2078303878   2   2   1   1
  3.5062533578   2   2   2   2
  -0.7842823986   3   1   1   1
  0.2977397584   3   1   2   2
  1.0799679943   3   1   3   1
  0.9498800874   3   2   2   1
  1.2238694393   3   2   3   2
  3.1852146506   3   3   1   1
  3.0849995627   3   3   2   2
  -0.0999933221   3   3   3   1
  3.2934828089   3   3   3   3
  -0.5414717861   4   1   2   1
  0.2710440647   4   1   3   2
  0.8101080666   4   1   4   1
  -0.8038348420   4   2   1   1
  -0.1241748377   4   2   2   2
  0.6785185600   4   2   3   1
  0.1083615278   4   2   3   3
  0.9078878531   4   2   4   2
  0.9387549286   4   3   2   1
  0.9058654256   4   3   3   2
  -0.0342063474   4   3   4   1
  1.0845666672   4   3   4   3
  3.1718694272   4   4   1   1
  3.0693491579   4   4   2   2
  -0.1023436182   4   4   3   1
  3.0358772848   4   4   3   3
  -0.1353032202   4   4   4   2
  3.1762495226   4   4   4   4
  -0.0169240423   5   1   1   1
  -0.4202264117   5   1   2   2
  -0.4023920499   5   1   3   1
  0.2067044200   5   1   3   3
  0.2251005816   5   1   4   2
  -0.0322307408   5   1   4   4
  0.6242225787   5   1   5   1
  -0.5510957160   5   2   2   1
  -0.0503081209   5   2   3   2
  0.5000287890   5   2   4   1
  0.1418360988   5   2   4   3
  0.6880857358   5   2   5   2
  -0.8128004546   5   3   1   1
  -0.1400389150   5   3   2   2
  0.6715850623   5   3   3   1
  -0.1491433038   5   3   3   3
  0.6599739379   5   3   4   2
  0.0052471675   5   3   4   4
  -0.0134917718   5   3   5   1
  0.8102250181   5   3   5   3
  0.9308738725   5   4   2   1
  0.8976734689   5   4   3   2
  -0.0346271003   5   4   4   1
  0.8826094803   5   4   4   3
  -0.0510851272   5   4   5   2
  1.0036620999   5   4   5   4
  3.1592716935   5   5   1   1
  3.0571434825   5   5   2   2
  -0.1019629012   5   5   3   1
  3.0235129915   5   5   3   3
  -0.1351643559   5   5   4   2
  3.0053930202   5   5   4   4
  -0.0326810478   5   5   5   1
  -0.1525088827   5   5   5   3
  3.0950439381   5   5   5   5
  0.0061722735   6   1   2   1
  0.3190162037   6   1   3   2
  0.3112158959   6   1   4   1
  -0.1737627531   6   1   4   3
  -0.1823421576   6   1   5   2
  0.0154692508   6   1   5   4
  0.4891380347   6   1   6   1
  0.0226092256   6   2   1   1
  0.4310340030   6   2   2   2
  0.4075588627   6   2   3   1
  0.0522705954   6   2   3   3
  0.0275735724   6   2   4   2
  -0.1075270341   6   2   4   4
  -0.3791574474   6   2   5   1
  -0.1326970456   6   2   5   3
  0.0488298712   6   2   5   5
  0.5338038886   6   2   6   2
  0.5569530869   6   3   2   1
  0.0621297835   6   3   3   2
  -0.4939817381   6   3   4   1
  0.0635226097   6   3   4   3
  -0.4898172988   6   3   5   2
  -0.0666513824   6   3   5   4
  -0.0066002985   6   3   6   1
  0.6148354852   6   3   6   3
  0.8185032687   6   4   1   1
  0.1526880620   6   4   2   2
  -0.6646437351   6   4   3   1
  0.1606933446   6   4   3   3
  -0.6540796281   6   4   4   2
  0.1650130134   6   4   4   4
  0.0126415024   6   4   5   1
  -0.6462598430   6   4   5   3
  0.0622528469   6   4   5   5
  -0.0225350439   6   4   6   2
  0.7429025591   6   4   6   4
  -0.9229369504   6   5   2   1
  -0.8910311832   6   5   3   2
  0.0333412526   6   5   4   1
  -0.8753997724   6   5   4   3
  0.0505165985   6   5   5   2
  -0.8587444647   6   5   5   4
  -0.0164763833   6   5   6   1
  -0.0692273025   6   5   6   3
  1.0050912690   6   5   6   5
  3.1437731398   6   6   1   1
  3.0440733149   6   6   2   2
  -0.0995359992   6   6   3   1
  3.0102118626   6   6   3   3
  -0.1329831379   6   6   4   2
  2.9840821914   6   6   4   4
  -0.0329507886   6   6   5   1
  -0.1584169250   6   6   5   3
  3.0323704883   6   6   5   5
  0.0573824589   6   6   6   2
  0.1082664290   6   6   6   4
  3.0796533904   6   6   6   6
  -0.0064183458   7   1   1   1
  -0.0070752617   7   1   2   2
  -0.0007078808   7   1   3   1
  -0.2561765261   7   1   3   3
  -0.2491830458   7   1   4   2
  0.1361029905   7   1   4   4
  -0.2461074404   7   1   5   1
  0.1432446965   7   1   5   3
  -0.0153880916   7   1   5   5
  -0.1472769498   7   1   6   2
  0.0084451441   7   1   6   4
  -0.0238811573   7   1   6   6
  0.3874889025   7   1   7   1
  -0.0077074880   7   2   2   1
  -0.3238568092   7   2   3   2
  -0.3146488881   7   2   4   1
  -0.0333783547   7   2   4   3
  -0.0220888297   7   2   5   2
  0.1010734179   7   2   5   4
  -0.2915554543   7   2   6   1
  -0.1129147136   7   2   6   3
  0.0334548065   7   2   6   5
  0.4189924536   7   2   7   2
  -0.0235183827   7   3   1   1
  -0.4361646451   7   3   2   2
  -0.4117892559   7   3   3   1
  -0.0639696292   7   3   3   3
  -0.0384259985   7   3   4   2
  -0.0629220015   7   3   4   4
  0.3724152866   7   3   5   1
  -0.0362653754   7   3   5   3
  0.0412560850   7   3   5   5
  -0.3710715881   7   3   6   2
  -0.0691793570   7   3   6   4
  -0.0032873215   7   3   6   6
  -0.0043163089   7   3   7   1
  0.4694456518   7   3   7   3
  -0.5613132035   7   4   2   1
  -0.0745190945   7   4   3   2
  0.4859886196   7   4   4   1
  -0.0746356951   7   4   4   3
  0.4830351105   7   4   5   2
  -0.0827699136   7   4   5   4
  0.0056627748   7   4   6   1
  -0.4711257097   7   4   6   3
  -0.0749609061   7   4   6   5
  -0.0201564161   7   4   7   2
  0.6235684920   7   4   7   4
  -0.8229468600   7   5   1   1
  -0.1662911462   7   5   2   2
  0.6555084452   7   5   3   1
  -0.1728584866   7   5   3   3
  0.6464178848   7   5   4   2
  -0.1847545016   7   5   4   4
  -0.0111696562   7   5   5   1
  0.6310139545   7   5   5   3
  -0.1220549361   7   5   5   5
  0.0288239665   7   5   6   2
  -0.6889382378   7   5   6   4
  -0.0599817605   7   5   6   6
  -0.0164367771   7   5   7   1
  0.0282180009   7   5   7   3
  0.7413919522   7   5   7   5
  -0.9127260964   7   6   2   1
  -0.8826385938   7   6   3   2
  0.0315124743   7   6   4   1
  -0.8581261991   7   6   4   3
  0.0575188089   7   6   5   2
  -0.9213114863   7   6   5   4
  -0.0252025726   7   6   6   1
  0.0042267181   7   6   6   3
  0.8822249162   7   6   6   5
  -0.0395836423   7   6   7   2
  0.0387009987   7   6   7   4
  0.9564314260   7   6   7   6
  3.1222570221   7   7   1   1
  3.0259735192   7   7   2   2
  -0.0961265062   7   7   3   1
  2.9817791563   7   7   3   3
  -0.1398783097   7   7   4   2
  3.0538336001   7   7   4   4
  -0.0431356348   7   7   5   1
  -0.0669651476   7   7   5   3
  2.9979954531   7   7   5   5
  -0.0313144047   7   7   6   2
  0.1221040846   7   7   6   4
  2.9840865976   7   7   6   6
  0.0755010059   7   7   7   1
  -0.0235352741   7   7   7   3
  -0.1341618428   7   7   7   5
  3.0545349239   7   7   7   7
  0.0026486491   8   1   2   1
  0.0005549346   8   1   3   2
  -0.0019574749   8   1   4   1
  0.2028446485   8   1   4   3
  0.1991514692   8   1   5   2
  -0.1115510846   8   1   5   4
  -0.1979266820   8   1   6   1
  0.1156119218   8   1   6   3
  -0.0158725241   8   1   6   5
  -0.1182107268   8   1   7   2
  0.0123335703   8   1   7   4
  0.0676888094   8   1   7   6
  0.3084568167   8   1   8   1
  0.0086608294   8   2   1   1
  0.0081147291   8   2   2   2
  -0.0004811413   8   2   3   1
  0.2591765494   8   2   3   3
  0.2500594507   8   2   4   2
  0.0374274431   8   2   4   4
  0.2484324262   8   2   5   1
  0.0275514876   8   2   5   3
  -0.0719266964   8   2   5   5
  -0.0229034991   8   2   6   2
  0.0818107918   8   2   6   4
  -0.0354524170   8   2   6   6
  -0.2243693021   8   2   7   1
  -0.0872572218   8   2   7   3
  -0.0469538788   8   2   7   5
  -0.0183524393   8   2   7   7
  0.3248575021   8   2   8   2
  0.0060270975   8   3   2   1
  0.3254273932   8   3   3   2
  0.3179341631   8   3   4   1
  0.0443190923   8   3   4   3
  0.0348315651   8   3   5   2
  0.0486534640   8   3   5   4
  0.2820338262   8   3   6   1
  -0.0372468513   8   3   6   3
  0.1152426966   8   3   6   5
  -0.2753452252   8   3   7   2
  -0.1306309556   8   3   7   4
  -0.0024777651   8   3   7   6
  -0.0098364160   8   3   8   1
  0.4380317816   8   3   8   3
  0.0210171311   8   4   1   1
  0.4371754034   8   4   2   2
  0.4153024185   8   4   3   1
  0.0767099813   8   4   3   3
  0.0536384455   8   4   4   2
  0.0810713568   8   4   4   4
  -0.3608428288   8   4   5   1
  0.0568839232   8   4   5   3
  0.0126418431   8   4   5   5
  0.3541760852   8   4   6   2
  0.0140707314   8   4   6   4
  -0.0447188183   8   4   6   6
  0.0098022277   8   4   7   1
  -0.4221890584   8   4   7   3
  -0.0734347753   8   4   7   5
  0.0329008582   8   4   7   7
  0.0586649940   8   4   8   2
  0.4700273229   8   4   8   4
  0.5645165012   8   5   2   1
  0.0912873072   8   5   3   2
  -0.4725062526   8   5   4   1
  0.0980412223   8   5   4   3
  -0.4631197153   8   5   5   2
  0.0201123975   8   5   5   4
  -0.0119258644   8   5   6   1
  0.5379969790   8   5   6   3
  -0.0550589276   8   5   6   5
  -0.0614687117   8   5   7   2
  -0.4963185605   8   5   7   4
  0.0303819151   8   5   7   6
  0.0768354393   8   5   8   1
  0.0143009253   8   5   8   3
  0.5709532429   8   5   8   5
  -0.8262057092   8   6   1   1
  -0.1847187889   8   6   2   2
  0.6403744353   8   6   3   1
  -0.1993468762   8   6   3   3
  0.6233364370   8   6   4   2
  -0.1084130166   8   6   4   4
  -0.0189493417   8   6   5   1
  0.7110161112   8   6   5   3
  -0.1541472914   8   6   5   5
  -0.0669625024   8   6   6   2
  -0.6595106428   8   6   6   4
  -0.1531531001   8   6   6   6
  0.0874111383   8   6   7   1
  0.0109069810   8   6   7   3
  0.6519894959   8   6   7   5
  -0.0606143446   8   6   7   7
  -0.0299931762   8   6   8   2
  0.0009623798   8   6   8   4
  0.7305542372   8   6   8   6
  -0.8966304904   8   7   2   1
  -0.8566702750   8   7   3   2
  0.0412607109   8   7   4   1
  -0.9630564646   8   7   4   3
  -0.0636870096   8   7   5   2
  -0.8928020655   8   7   5   4
  0.1053534941   8   7   6   1
  -0.0096900162   8   7   6   3
  0.8817872821   8   7   6   5
  -0.0306079869   8   7   7   2
  0.0243757872   8   7   7   4
  0.8785470260   8   7   7   6
  -0.0779095345   8   7   8   1
  0.0161945377   8   7   8   3
  -0.0323842140   8   7   8   5
  0.9675208318   8   7   8   7
  3.0902548406   8   8   1   1
  2.9836931726   8   8   2   2
  -0.1063508299   8   8   3   1
  3.1161580131   8   8   3   3
  0.0264383033   8   8   4   2
  3.0112723084   8   8   4   4
  0.1326672167   8   8   5   1
  -0.0783023323   8   8   5   3
  2.9909881686   8   8   5   5
  -0.0266829450   8   8   6   2
  0.0978687288   8   8   6   4
  2.9794151437   8   8   6   6
  -0.1076735559   8   8   7   1
  0.0067413104   8   8   7   3
  -0.1081858943   8   8   7   5
  2.9710039825   8   8   7   7
  0.1270751838   8   8   8   2
  0.0038241249   8   8   8   4
  -0.1140415877   8   8   8   6
  3.0703819363   8   8   8   8
  -0.0024559092   9   1   1   1
  -0.0027842921   9   1   2   2
  -0.0003371197   9   1   3   1
  0.0012213319   9   1   3   3
  0.0035753783   9   1   4   2
  -0.1664916408   9   1   4   4
  0.0036615901   9   1   5   1
  -0.1636323863   9   1   5   3
  0.0804901399   9   1   5   5
  0.1618572733   9   1   6   2
  -0.0837151815   9   1   6   4
  0.0660815396   9   1   6   6
  -0.1614978516   9   1   7   1
  0.0866499318   9   1   7   3
  0.0701378257   9   1   7   5
  -0.0631298693   9   1   7   7
  -0.0897862600   9   1   8   2
  -0.0757999074   9   1   8   4
  -0.0630380673   9   1   8   6
  -0.0147827639   9   1   8   8
  0.2425283476   9   1   9   1
  -0.0030054804   9   2   2   1
  0.0016933930   9   2   3   2
  0.0045344181   9   2   4   1
  -0.2011731059   9   2   4   3
  -0.1974113513   9   2   5   2
  -0.0415531784   9   2   5   4
  0.1992314580   9   2   6   1
  0.0361190514   9   2   6   3
  -0.1368847264   9   2   6   5
  -0.0334236075   9   2   7   2
  0.1442738909   9   2   7   4
  -0.0230774119   9   2   7   6
  -0.1651470459   9   2   8   1
  -0.1521375867   9   2   8   3
  -0.0284596937   9   2   8   5
  0.0924511715   9   2   8   7
  0.3443921784   9   2   9   2
  -0.0082981954   9   3   1   1
  -0.0044815638   9   3   2   2
  0.0037465402   9   3   3   1
  -0.2576502721   9   3   3   3
  -0.2489462312   9   3   4   2
  -0.0563926997   9   3   4   4
  -0.2506874791   9   3   5   1
  -0.0469452810   9   3   5   3
  0.0260349890   9   3   5   5
  0.0456277710   9   3   6   2
  -0.0365493129   9   3   6   4
  0.0787249622   9   3   6   6
  0.2043637958   9   3   7   1
  0.0421836927   9   3   7   3
  0.0893889734   9   3   7   5
  0.0095308670   9   3   7   7
  -0.2897194011   9   3   8   2
  -0.0965271238   9   3   8   4
  0.0202868573   9   3   8   6
  -0.1352617509   9   3   8   8
  0.0849576844   9   3   9   1
  0.3282144376   9   3   9   3
  -0.0013897825   9   4   2   1
  -0.3231979887   9   4   3   2
  -0.3203838257   9   4   4   1
  -0.0676445059   9   4   4   3
  -0.0626616090   9   4   5   2
  0.0280747619   9   4   5   4
  -0.2572143242   9   4   6   1
  -0.0354517308   9   4   6   3
  0.0166555862   9   4   6   5
  0.3523131866   9   4   7   2
  -0.0070008658   9   4   7   4
  -0.0686588773   9   4   7   6
  -0.0922974902   9   4   8   1
  -0.3014339858   9   4   8   3
  -0.0828793905   9   4   8   5
  -0.0099344073   9   4   8   7
  0.0328660182   9   4   9   2
  0.3781203485   9   4   9   4
  -0.0148157823   9   5   1   1
  -0.4332376812   9   5   2   2
  -0.4175787198   9   5   3   1
  -0.1032962710   9   5   3   3
  -0.0863385622   9   5   4   2
  0.0103456678   9   5   4   4
  0.3308158391   9   5   5   1
  0.0285878337   9   5   5   3
  -0.0435353081   9   5   5   5
  -0.4429530970   9   5   6   2
  0.0238253523   9   5   6   4
  -0.0464450113   9   5   6   6
  0.1088190030   9   5   7   1
  0.3844037194   9   5   7   3
  -0.0237683385   9   5   7   5
  0.0446353508   9   5   7   7
  -0.0427276549   9   5   8   2
  -0.3764340313   9   5   8   4
  0.0720010746   9   5   8   6
  -0.0085228665   9   5   8   8
  -0.0700278797   9   5   9   1
  0.0288432206   9   5   9   3
  0.4576405800   9   5   9   5
  0.5656746911   9   6   2   1
  0.1281709170   9   6   3   2
  -0.4370308061   9   6   4   1
  -0.0114844484   9   6   4   3
  -0.5742319413   9   6   5   2
  0.0578805459   9   6   5   4
  0.1340507892   9   6   6   1
  0.5004174694   9   6   6   3
  -0.0611908810   9   6   6   5
  -0.0542192114   9   6   7   2
  -0.4910158869   9   6   7   4
  -0.0556894721   9   6   7   6
  -0.0819437290   9   6   8   1
  0.0385215482   9   6   8   3
  0.4865975156   9   6   8   5
  0.0513482144   9   6   8   7
  0.0955587628   9   6   9   2
  -0.0268013655   9   6   9   4
  0.5770860209   9   6   9   6
  -0.8266459062   9   7   1   1
  -0.2256751654   9   7   2   2
  0.5999822675   9   7   3   1
  -0.0512372995   9   7   3   3
  0.7719950486   9   7   4   2
  -0.1476695157   9   7   4   4
  0.1693120099   9   7   5   1
  0.6717697545   9   7   5   3
  -0.1552119376   9   7   5   5
  -0.0645165324   9   7   6   2
  -0.6587578826   9   7   6   4
  -0.1517749874   9   7   6   6
  -0.1058576058   9   7   7   1
  0.0462691363   9   7   7   3
  0.6535082758   9   7   7   5
  -0.1403716095   9   7   7   7
  0.1222929933   9   7   8   2
  -0.0335825396   9   7   8   4
  0.6510031574   9   7   8   6
  -0.0082572376   9   7   8   8
  -0.0115420685   9   7   9   1
  -0.1305527022   9   7   9   3
  0.0220739158   9   7   9   5
  0.7611856249   9   7   9   7
  -0.8542794841   9   8   2   1
  -1.0686184625   9   8   3   2
  -0.2122402471   9   8   4   1
  -0.9218160030   9   8   4   3
  -0.0622106673   9   8   5   2
  -0.9021447388   9   8   5   4
  -0.1505146824   9   8   6   1
  0.0386781948   9   8   6   3
  0.8941108341   9   8   6   5
  0.1723657509   9   8   7   2
  -0.0248318876   9   8   7   4
  0.8906934990   9   8   7   6
  -0.0181693619   9   8   8   1
  -0.1830209951   9   8   8   3
  0.0129941300   9   8   8   5
  0.8910207494   9   8   8   7
  0.0231398610   9   8   9   2
  0.1878391082   9   8   9   4
  0.0025986847   9   8   9   6
  1.0412308273   9   8   9   8
  3.0299367869   9   9   1   1
  3.2828851603   9   9   2   2
  0.2525085259   9   9   3   1
  3.0523909649   9   9   3   3
  0.0212640662   9   9   4   2
  3.0208893378   9   9   4   4
  -0.2312777147   9   9   5   1
  -0.0107907041   9   9   5   3
  3.0052055256   9   9   5   5
  0.2616015352   9   9   6   2
  0.0273136766   9   9   6   4
  2.9937506349   9   9   6   6
  -0.0273485576   9   9   7   1
  -0.2753178115   9   9   7   3
  -0.0399378477   9   9   7   5
  2.9834663718   9   9   7   7
  0.0366738974   9   9   8   2
  0.2827639956   9   9   8   4
  -0.0515968691   9   9   8   6
  2.9746914887   9   9   8   8
  -0.0093706592   9   9   9   1
  -0.0373726971   9   9   9   3
  -0.2838235256   9   9   9   5
  -0.0606871672   9   9   9   7
  3.1835418637   9   9   9   9
  0.0007199549   10   1   2   1
  0.0001745786   10   1   3   2
  -0.0005304681   10   1   4   1
  -0.0045643685   10   1   4   3
  -0.0050885346   10   1   5   2
  0.1401727339   10   1   5   4
  0.0042081414   10   1   6   1
  -0.1387624287   10   1   6   3
  0.1538744870   10   1   6   5
  0.1375236201   10   1   7   2
  -0.1577115155   10   1   7   4
  -0.0548885642   10   1   7   6
  -0.1368237328   10   1   8   1
  0.1640308783   10   1   8   3
  -0.0577108954   10   1   8   5
  -0.0079741984   10   1   8   7
  -0.1732324367   10   1   9   2
  0.0658140085   10   1   9   4
  -0.0066296193   10   1   9   6
  -0.0047294630   10   1   9   8
  0.3030501569   10   1   10   1
  0.0024313743   10   2   1   1
  0.0023255237   10   2   2   2
  -0.0000989193   10   2   3   1
  -0.0040995684   10   2   3   3
  -0.0064244940   10   2   4   2
  0.1662633382   10   2   4   4
  -0.0060528653   10   2   5   1
  0.1635587078   10   2   5   3
  -0.0463577041   10   2   5   5
  -0.1626264164   10   2   6   2
  0.0501837136   10   2   6   4
  -0.0964868584   10   2   6   6
  0.1652589061   10   2   7   1
  -0.0547267858   10   2   7   3
  -0.1000118637   10   2   7   5
  0.0728743869   10   2   7   7
  0.0597578198   10   2   8   2
  0.1035134449   10   2   8   4
  0.0728661954   10   2   8   6
  0.0153557265   10   2   8   8
  -0.2259471798   10   2   9   1
  -0.1070621277   10   2   9   3
  0.0803197645   10   2   9   5
  0.0119729411   10   2   9   7
  0.0097782135   10   2   9   9
  0.2490691878   10   2   10   2
  0.0017257162   10   3   2   1
  -0.0057423623   10   3   3   2
  -0.0073004972   10   3   4   1
  0.2023881558   10   3   4   3
  0.1999505826   10   3   5   2
  -0.0535579712   10   3   5   4
  -0.2045992530   10   3   6   1
  0.0576993194   10   3   6   3
  -0.0029224844   10   3   6   5
  -0.0576372370   10   3   7   2
  -0.0011234407   10   3   7   4
  0.0901156174   10   3   7   6
  0.2617162723   10   3   8   1
  0.0020238160   10   3   8   3
  0.0959872407   10   3   8   5
  -0.0949092742   10   3   8   7
  -0.1936795347   10   3   9   2
  -0.1017665843   10   3   9   4
  -0.0996447046   10   3   9   6
  -0.0190992239   10   3   9   8
  -0.0790475215   10   3   10   1
  0.2754469302   10   3   10   3
  0.0054446932   10   4   1   1
  -0.0023565860   10   4   2   2
  -0.0077267455   10   4   3   1
  0.2572792332   10   4   3   3
  0.2514309999   10   4   4   2
  -0.0562116622   10   4   4   4
  0.2571290666   10   4   5   1
  -0.0627772214   10   4   5   3
  0.0091397043   10   4   5   5
  0.0600565671   10   4   6   2
  -0.0026433818   10   4   6   4
  0.0137459532   10   4   6   6
  -0.3161485517   10   4   7   1
  0.0046026562   10   4   7   3
  0.0064527855   10   4   7   5
  -0.0858985794   10   4   7   7
  0.2423733806   10   4   8   2
  -0.0045562384   10   4   8   4
  -0.0950348129   10   4   8   6
  0.1311692754   10   4   8   8
  0.0827968376   10   4   9   1
  -0.2318288013   10   4   9   3
  -0.1038810498   10   4   9   5
  0.1299045600   10   4   9   7
  0.0282817692   10   4   9   9
  -0.0941688509   10   4   10   2
  0.3203642358   10   4   10   4
  -0.0050941489   10   5   2   1
  0.3244204577   10   5   3   2
  0.3280511557   10   5   4   1
  -0.0694251288   10   5   4   3
  -0.0677355527   10   5   5   2
  0.0118700932   10   5   5   4
  0.3945506588   10   5   6   1
  -0.0127791661   10   5   6   3
  -0.0163256568   10   5   6   5
  -0.3072790907   10   5   7   2
  0.0147030909   10   5   7   4
  -0.0160182778   10   5   7   6
  -0.0939319491   10   5   8   1
  0.2973046591   10   5   8   3
  -0.0101429694   10   5   8   5
  0.0977434480   10   5   8   7
  0.1069827062   10   5   9   2
  -0.2882940456   10   5   9   4
  0.1120602582   10   5   9   6
  -0.1808788036   10   5   9   8
  -0.0049054313   10   5   10   1
  -0.1138444458   10   5   10   3
  0.3877987094   10   5   10   5
  -0.0046286849   10   6   1   1
  -0.4319050951   10   6   2   2
  -0.4263999750   10   6   3   1
  0.0753440859   10   6   3   3
  0.0819557468   10   6   4   2
  -0.0306253232   10   6   4   4
  0.5070787897   10   6   5   1
  -0.0233671406   10   6   5   3
  -0.0371889633   10   6   5   5
  -0.3966339993   10   6   6   2
  0.0283208490   10   6   6   4
  -0.0369688695   10   6   6   6
  -0.1152741270   10   6   7   1
  0.3855941333   10   6   7   3
  -0.0256332093   10   6   7   5
  -0.0336760226   10   6   7   7
  0.1291644102   10   6   8   2
  -0.3781502660   10   6   8   4
  -0.0183763681   10   6   8   6
  0.1039267059   10   6   8   8
  -0.0079381635   10   6   9   1
  -0.1384507704   10   6   9   3
  0.3683729196   10   6   9   5
  0.1271387886   10   6   9   7
  -0.2686708397   10   6   9   9
  0.0081302792   10   6   10   2
  0.1428684624   10   6   10   4
  0.4875707447   10   6   10   6
  0.5736649476   10   7   2   1
  -0.0999992532   10   7   3   2
  -0.6723887224   10   7   4   1
  0.0447927454   10   7   4   3
  -0.5236383453   10   7   5   2
  0.0539665280   10   7   5   4
  -0.1521768924   10   7   6   1
  0.5097181193   10   7   6   3
  -0.0538048497   10   7   6   5
  0.1681514165   10   7   7   2
  -0.5022559380   10   7   7   4
  -0.0487564545   10   7   7   6
  -0.0114597260   10   7   8   1
  -0.1778421022   10   7   8   3
  0.4947311582   10   7   8   5
  -0.0385390203   10   7   8   7
  0.0142805859   10   7   9   2
  0.1857644867   10   7   9   4
  0.4840031001   10   7   9   6
  0.1465477871   10   7   9   8
  -0.0027146827   10   7   10   1
  -0.0118915330   10   7   10   3
  -0.1875340526   10   7   10   5
  0.6381329583   10   7   10   7
  -0.8303674217   10   8   1   1
  0.0989252529   10   8   2   2
  0.9277114855   10   8   3   1
  -0.1118232112   10   8   3   3
  0.7136523426   10   8   4   2
  -0.1267850217   10   8   4   4
  -0.2163660110   10   8   5   1
  0.6944793389   10   8   5   3
  -0.1291636016   10   8   5   5
  0.2366971034   10   8   6   2
  -0.6854848008   10   8   6   4
  -0.1258477255   10   8   6   6
  -0.0168183535   10   8   7   1
  -0.2471869377   10   8   7   3
  0.6783485569   10   8   7   5
  -0.1170656472   10   8   7   7
  0.0220540271   10   8   8   2
  0.2554963268   10   8   8   4
  0.6703629632   10   8   8   6
  -0.1006984222   10   8   8   8
  -0.0052982808   10   8   9   1
  -0.0223975842   10   8   9   3
  -0.2618872701   10   8   9   5
  0.6595765862   10   8   9   7
  0.1565290802   10   8   9   9
  0.0055470391   10   8   10   2
  0.0171240270   10   8   10   4
  -0.2596632433   10   8   10   6
  0.8771712670   10   8   10   8
  -1.3361183253   10   9   2   1
  -1.0004702265   10   9   3   2
  0.3369502746   10   9   4   1
  -0.9719619858   10   9   4   3
  0.3656777271   10   9   5   2
  -0.9597358893   10   9   5   4
  -0.0260018261   10   9   6   1
  -0.3782879675   10   9   6   3
  0.9514989298   10   9   6   5
  0.0346652249   10   9   7   2
  0.3867477546   10   9   7   4
  0.9439822503   10   9   7   6
  -0.0088422080   10   9   8   1
  -0.0371472756   10   9   8   3
  -0.3934402353   10   9   8   5
  0.9359307713   10   9   8   7
  0.0115632651   10   9   9   2
  0.0348552989   10   9   9   4
  -0.3967682261   10   9   9   6
  0.9279019462   10   9   9   8
  -0.0025757261   10   9   10   1
  -0.0094047159   10   9   10   3
  -0.0253637086   10   9   10   5
  -0.3871790866   10   9   10   7
  1.2689976995   10   9   10   9
  3.7674289704   10   10   1   1
  3.1927664670   10   10   2   2
  -0.5737492750   10   10   3   1
  3.1511822960   10   10   3   3
  -0.6131968125   10   10   4   2
  3.1331056293   10   10   4   4
  -0.0372978807   10   10   5   1
  -0.6281885850   10   10   5   3
  3.1195276265   10   10   5   5
  0.0493511161   10   10   6   2
  0.6368925317   10   10   6   4
  3.1051296044   10   10   6   6
  -0.0122790993   10   10   7   1
  -0.0536295469   10   10   7   3