 &FCI NORB= 22,NELEC= ,MS0= ,
  ORBSYM=1,3,1,3,1,1,3,3,1,1,1,3,1,3,1,3,1,3,1,1,3,1,
  ISYM=1,
 /
  -38.0797570061329508916969644   1   1   0   0
  -34.8125833710846066537669685   2   2   0   0
  -34.8125832775832222409917449   3   3   0   0
  0.7073806142212994974016738   4   2   0   0
  0.0000002777854299917947856   4   3   0   0
  -32.4002782326876257457115571   4   4   0   0
  0.0000000964630780531106069   5   1   0   0
  0.0000002777854137825386260   5   2   0   0
  -0.7073806174884460507001904   5   3   0   0
  -32.4002781922928946300999087   5   5   0   0
  2.9793115801878089499155067   6   1   0   0
  -0.0000000135712614479643889   6   3   0   0
  -33.0064164377743622935668100   6   6   0   0
  0.0000000343676169110798253   7   2   0   0
  -0.0000000525016021360614183   7   4   0   0
  -30.4876136408086821916185727   7   7   0   0
  -2.7752977786033699025836086   8   2   0   0
  -0.0000014265100640731276371   8   3   0   0
  -1.2152580865816422495129245   8   4   0   0
  0.0000001474189537109538151   8   5   0   0
  0.0000000340170503038180480   8   7   0   0
  -32.4724762132647413181985030   8   8   0   0
  -0.0000000822772834863094715   9   1   0   0
  0.0000014265100597432578411   9   2   0   0
  -2.7752977625718271426080719   9   3   0   0
  0.0000001474189476047271796   9   4   0   0
  1.2152581600103540271362590   9   5   0   0
  0.0000003119895511938253208   9   6   0   0
  -32.4724762498328090032373439   9   9   0   0
  0.6945218467062426181968249   10   1   0   0
  -0.0000002864337895203128426   10   3   0   0
  0.0000001441758235021239898   10   5   0   0
  -2.6088928141580192132664706   10   6   0   0
  -0.0000001060283248977000881   10   9   0   0
  -31.8547338759461808876949362   10   10   0   0
  -0.0000000317771686117462870   11   1   0   0
  0.0000000340955666616737929   11   2   0   0
  -0.6574525807543550870448712   11   3   0   0
  -0.0000003474611390899551289   11   4   0   0
  1.0194386731641800203362891   11   5   0   0
  -0.0000000582036440016642231   11   6   0   0
  -0.0000008294874069003643768   11   8   0   0
  -1.7948739106259032904944206   11   9   0   0
  -0.0000002533875382015882138   11   10   0   0
  -28.7322851596946051699887903   11   11   0   0
  0.6574525217642063212863945   12   2   0   0
  0.0000000340955286365351995   12   3   0   0
  1.0194387225437588906373776   12   4   0   0
  0.0000003474611289730478170   12   5   0   0
  -0.0000000652016387801698746   12   7   0   0
  1.7948739628688832326020020   12   8   0   0
  -0.0000008294874030007060028   12   9   0   0
  -28.7322851654855178082925704   12   12   0   0
  0.2946065818569629790601994   13   1   0   0
  0.0000000206119304957397276   13   3   0   0
  0.0000000425913826429535902   13   5   0   0
  1.6331857768227606708677513   13   6   0   0
  -0.0000001860861784663825347   13   9   0   0
  1.5667308514134061780964657   13   10   0   0
  -0.0000000228487278125522053   13   11   0   0
  -28.7653255354803789600737218   13   13   0   0
  -0.0000000387534087555889319   14   2   0   0
  3.1403321285207401736272459   14   7   0   0
  0.0000000274944076263287408   14   8   0   0
  -0.0000000398575767955045805   14   12   0   0
  -27.9962640705591674361585319   14   14   0   0
  0.0000000244236819657572823   15   1   0   0
  0.0000000828022629351110595   15   2   0   0
  -0.3040976907076747837166408   15   3   0   0
  0.0000001039886007303536530   15   4   0   0
  -0.8636390821411205065416539   15   5   0   0
  0.0000000431657041222166526   15   6   0   0
  -0.0000001709090817758607272   15   8   0   0
  -0.7070710114175989824403246   15   9   0   0
  -0.0000000729347667816071521   15   10   0   0
  -1.1350491418880956917547564   15   11   0   0
  -0.0000002501969040002993694   15   12   0   0
  -0.0000000492903159399205038   15   13   0   0
  -26.9015458882000153550961841   15   15   0   0
  -0.3040976674956665792848298   16   2   0   0
  -0.0000000828022613807988250   16   3   0   0
  0.8636390552480923687994618   16   4   0   0
  0.0000001039886035059112146   16   5   0   0
  -0.7070710102038186839479295   16   8   0   0
  0.0000001709090928780909735   16   9   0   0
  -0.0000002501969032508988278   16   11   0   0
  1.1350491698846258969979317   16   12   0   0
  0.0000000267692155941896573   16   14   0   0
  -26.9015458671029143999930966   16   16   0   0
  -0.0000000112476861713339815   17   1   0   0
  -0.0000002390601582247242618   17   2   0   0
  0.6597723908076057464100472   17   3   0   0
  -0.0000000619606662644045514   17   4   0   0
  2.0409656358974488377100442   17   5   0   0
  -0.0000000566287520209485251   17   6   0   0
  -0.0000001124893708182028718   17   8   0   0
  -0.7416953652439073341184894   17   9   0   0
  -0.0000000856201282650737028   17   10   0   0
  0.6770432691065514374528789   17   11   0   0
  0.0000002102065221193383238   17   12   0   0
  0.0000000952324895608924749   17   13   0   0
  1.5348734859663124563411429   17   15   0   0
  -0.0000001382137759797785748   17   16   0   0
  -25.8559200384318259580140875   17   17   0   0
  0.6597724015044017509268315   18   2   0   0
  0.0000002390601713253559524   18   3   0   0
  -2.0409655534972825918771377   18   4   0   0
  -0.0000000619606409513195899   18   5   0   0
  -0.7416953782323558730382729   18   8   0   0
  0.0000001124893822535000254   18   9   0   0
  0.0000002102065220360715969   18   11   0   0
  -0.6770433119641050545567396   18   12   0   0
  0.0000000461524912140825643   18   14   0   0
  0.0000001382138040684210978   18   15   0   0
  1.5348734141668776143063724   18   16   0   0
  -25.8559200335182950425405579   18   18   0   0
  -0.3191789568685701183881065   19   1   0   0
  -0.0000000565855673428927730   19   5   0   0
  -0.9466805594009788382692250   19   6   0   0
  0.0000000859371335204528464   19   9   0   0
  -0.8417221850953255923855068   19   10   0   0
  3.2941141988518092276194693   19   13   0   0
  -0.0000000467910890034062277   19   15   0   0
  -0.0000000148890852980088084   19   17   0   0
  -25.5103809854896681486025045   19   19   0   0
  0.0000001948551613395466120   20   2   0   0
  1.2687615766106596915108184   20   3   0   0
  -0.0000001652559035170142465   20   4   0   0
  0.3025141681249834402223087   20   5   0   0
  -0.0000000189621297552733381   20   6   0   0
  -0.0000004958488936113170098   20   8   0   0
  -0.7427540424306714461621937   20   9   0   0
  -0.0000000438899264709746717   20   10   0   0
  -0.3725541779762717720103637   20   11   0   0
  0.0000000765371721694885210   20   12   0   0
  -2.5792797365273631982063307   20   15   0   0
  -0.0000010984310599981839118   20   16   0   0
  -1.0078094909741033280425881   20   17   0   0
  -0.0000005199453979587431718   20   18   0   0
  0.0000000313928437689625639   20   19   0   0
  -24.9282358113051039083529758   20   20   0   0
  1.2687615856000613590026660   21   2   0   0
  -0.0000001948551485719818288   21   3   0   0
  -0.3025141929797583451033915   21   4   0   0
  -0.0000001652558828668659885   21   5   0   0
  -0.0000000328399736828686675   21   7   0   0
  -0.7427540398209724337164062   21   8   0   0
  0.0000004958488871720234670   21   9   0   0
  0.0000000765372097921712680   21   11   0   0
  0.3725541313137402665844888   21   12   0   0
  0.0000000472096665513924917   21   14   0   0
  0.0000010984310497841320853   21   15   0   0
  -2.5792797553308544067363073   21   16   0   0
  0.0000005199453908533158142   21   17   0   0
  -1.0078095021393638219819877   21   18   0   0
  -24.9282359045084085380494798   21   21   0   0
  -1.0217698883123964570529552   22   1   0   0
  -0.4760532049075200666798935   22   6   0   0
  -0.2512723427034147527514563   22   10   0   0
  0.0000000358228570140894931   22   11   0   0
  -0.5675276229742777234221762   22   13   0   0
  0.0000000235219569932887396   22   15   0   0
  2.6902090473953110816296430   22   19   0   0
  0.0000000152683932164165981   22   20   0   0
  -25.9995278790473243191172514   22   22   0   0
  2.0879249289   1   1   1   1
  0.5454569252   2   1   2   1
  1.8051497232   2   2   1   1
  -0.0000001372   2   2   2   1
  1.9532846289   2   2   2   2
  0.1410117563   3   1   2   2
  0.5454569166   3   1   3   1
  0.1410117576   3   2   2   1
  0.0000001372   3   2   3   1
  0.2150024411   3   2   3   2
  1.8051497147   3   3   1   1
  0.0000001372   3   3   2   1
  1.5232797533   3   3   2   2
  -0.1410117554   3   3   3   1
  1.9532846219   3   3   3   3
  -0.0564472544   4   1   2   1
  -0.0000001211   4   1   2   2
  -0.0000000222   4   1   3   1
  0.2088206374   4   1   3   2
  0.0000001211   4   1   3   3
  0.2865799130   4   1   4   1
  -0.0898643880   4   2   1   1
  -0.0000002101   4   2   2   1
  -0.0180927764   4   2   2   2
  0.3622506189   4   2   3   1
  0.0000000143   4   2   3   2
  -0.0907372448   4   2   3   3
  0.0000000212   4   2   4   1
  0.4466442590   4   2   4   2
  -0.0000000353   4   3   1   1
  0.3622506223   4   3   2   1
  -0.0000000356   4   3   2   2
  0.0000002101   4   3   3   1
  0.0363222327   4   3   3   2
  -0.1134640352   4   3   4   1
  -0.0000000163   4   3   4   2
  0.4881160652   4   3   4   3
  1.6864300040   4   4   1   1
  0.0000000268   4   4   2   1
  1.6616042338   4   4   2   2
  -0.1433064654   4   4   3   1
  -0.0000000318   4   4   3   2
  1.7425323702   4   4   3   3
  -0.1534460570   4   4   4   2
  -0.0000000603   4   4   4   3
  1.9224099352   4   4   4   4
  -0.0000000108   5   1   1   1
  -0.0000000222   5   1   2   1
  -0.2088206355   5   1   2   2
  0.0564472548   5   1   3   1
  -0.0000001211   5   1   3   2
  0.2088206290   5   1   3   3
  0.1134640340   5   1   4   2
  0.0000000212   5   1   4   3
  -0.0066583497   5   1   4   4
  0.2865799083   5   1   5   1
  -0.0000000353   5   2   1   1
  -0.3622506126   5   2   2   1
  -0.0000002101   5   2   3   1
  -0.0363222308   5   2   3   2
  -0.0000000356   5   2   3   3
  0.1134640332   5   2   4   1
  -0.0000000163   5   2   4   2
  -0.1215068142   5   2   4   3
  -0.0000000212   5   2   5   1
  0.4881160460   5   2   5   2
  0.0898643877   5   3   1   1
  -0.0000002101   5   3   2   1
  0.0907372457   5   3   2   2
  0.3622506177   5   3   3   1
  0.0000000143   5   3   3   2
  0.0180927757   5   3   3   3
  0.0000000212   5   3   4   1
  0.1629786235   5   3   4   2
  0.0000000163   5   3   4   3
  0.0152314820   5   3   4   4
  0.1134640320   5   3   5   1
  0.0000000163   5   3   5   2
  0.4466442625   5   3   5   3
  0.1433064671   5   4   2   1
  -0.0000000318   5   4   2   2
  0.0000000268   5   4   3   1
  0.0404640725   5   4   3   2
  0.0000000318   5   4   3   3
  -0.0066583454   5   4   4   1
  -0.0000000271   5   4   4   2
  0.0691072886   5   4   4   3
  -0.0691072856   5   4   5   2
  -0.0000000271   5   4   5   3
  0.1880683283   5   4   5   4
  1.6864300022   5   5   1   1
  -0.0000000268   5   5   2   1
  1.7425323612   5   5   2   2
  0.1433064630   5   5   3   1
  0.0000000318   5   5   3   2
  1.6616042360   5   5   3   3
  -0.0152314808   5   5   4   2
  1.5462732815   5   5   4   4
  0.0066583569   5   5   5   1
  -0.0000000603   5   5   5   2
  0.1534460546   5   5   5   3
  1.9224099268   5   5   5   5
  -0.3878685330   6   1   1   1
  -0.0943807854   6   1   2   2
  -0.0943807880   6   1   3   3
  0.0439569831   6   1   4   2
  0.0000000173   6   1   4   3
  0.0235679377   6   1   4   4
  0.0000000173   6   1   5   2
  -0.0439569845   6   1   5   3
  0.0235679365   6   1   5   5
  0.4006746667   6   1   6   1
  0.1748810109   6   2   2   1
  -0.0000000864   6   2   2   2
  0.0888757634   6   2   3   2
  0.0000000864   6   2   3   3
  0.0267279712   6   2   4   1
  -0.0000001200   6   2   4   2
  0.2068574987   6   2   4   3
  0.0000000105   6   2   5   1
  -0.2068574945   6   2   5   2
  -0.0000001200   6   2   5   3
  0.0095549390   6   2   5   4
  0.3104531905   6   2   6   2
  0.0888757613   6   3   2   2
  0.1748810011   6   3   3   1
  0.0000000864   6   3   3   2
  -0.0888757622   6   3   3   3
  0.0000000105   6   3   4   1
  0.2068574944   6   3   4   2
  0.0000001200   6   3   4   3
  -0.0095549366   6   3   4   4
  -0.0267279727   6   3   5   1
  -0.0000001200   6   3   5   2
  0.2068574938   6   3   5   3
  0.0095549284   6   3   5   5
  0.3104531772   6   3   6   3
  0.0863521239   6   4   2   1
  -0.0000001002   6   4   2   2
  0.0000000339   6   4   3   1
  0.1727342333   6   4   3   2
  0.0000001002   6   4   3   3
  0.1766127019   6   4   4   1
  -0.0000000105   6   4   4   2
  0.0559644851   6   4   4   3
  -0.0000000120   6   4   4   4
  -0.0559644821   6   4   5   2
  -0.0000000105   6   4   5   3
  0.0586503722   6   4   5   4
  0.0000000120   6   4   5   5
  0.1781943651   6   4   6   2
  0.0000000700   6   4   6   3
  0.2641155766   6   4   6   4
  0.0000000339   6   5   2   1
  -0.1727342316   6   5   2   2
  -0.0863521282   6   5   3   1
  -0.0000001002   6   5   3   2
  0.1727342311   6   5   3   3
  -0.0559644867   6   5   4   2
  -0.0000000105   6   5   4   3
  0.0586503715   6   5   4   4
  0.1766126983   6   5   5   1
  0.0000000105   6   5   5   2
  -0.0559644941   6   5   5   3
  0.0000000120   6   5   5   4
  -0.0586503668   6   5   5   5
  0.0000000700   6   5   6   2
  -0.1781943637   6   5   6   3
  0.2641155802   6   5   6   5
  1.8148183099   6   6   1   1
  1.6500642503   6   6   2   2
  1.6500642332   6   6   3   3
  0.0863350261   6   6   4   2
  0.0000000339   6   6   4   3
  1.5764570643   6   6   4   4
  -0.0000000124   6   6   5   1
  0.0000000339   6   6   5   2
  -0.0863350206   6   6   5   3
  1.5764570695   6   6   5   5
  -0.2233642120   6   6   6   1
  0.0000000105   6   6   6   3
  1.9098065895   6   6   6   6
  -0.0000000743   7   1   4   2
  0.1893087792   7   1   4   3
  0.1893087763   7   1   5   2
  0.0000000743   7   1   5   3
  0.1955120056   7   1   7   1
  -0.1872467208   7   2   2   2
  0.0084492222   7   2   3   1
  -0.0000001821   7   2   3   2
  0.1872467204   7   2   3   3
  -0.0000000953   7   2   4   1
  0.0893350208   7   2   4   2
  0.0000000518   7   2   4   3
  0.1520406945   7   2   4   4
  0.2427851579   7   2   5   1
  -0.0000000518   7   2   5   2
  0.0893350204   7   2   5   3
  -0.0000000285   7   2   5   4
  -0.1520406850   7   2   5   5
  -0.0102786900   7   2   6   3
  -0.0000000836   7   2   6   4
  0.2129193585   7   2   6   5
  0.3599887772   7   2   7   2
  -0.0084492224   7   3   2   1
  -0.0000001821   7   3   2   2
  0.1872467250   7   3   3   2
  0.0000001821   7   3   3   3
  0.2427851621   7   3   4   1
  0.0000000518   7   3   4   2
  -0.0893350225   7   3   4   3
  0.0000000285   7   3   4   4
  0.0000000953   7   3   5   1
  0.0893350213   7   3   5   2
  0.0000000518   7   3   5   3
  0.1520406990   7   3   5   4
  -0.0000000285   7   3   5   5
  0.0102786895   7   3   6   2
  0.2129193573   7   3   6   4
  0.0000000836   7   3   6   5
  0.3599887826   7   3   7   3
  -0.0000001623   7   4   2   1
  0.1334642563   7   4   2   2
  0.4134221413   7   4   3   1
  0.0000000774   7   4   3   2
  -0.1334642514   7   4   3   3
  0.3352851955   7   4   4   2
  0.0000000628   7   4   4   3
  -0.0171610430   7   4   4   4
  0.0197105700   7   4   5   1
  -0.0000000628   7   4   5   2
  0.3352851986   7   4   5   3
  0.0171610435   7   4   5   5
  -0.0000001135   7   4   6   2
  0.2891453549   7   4   6   3
  -0.0753373997   7   4   6   5
  0.0921136426   7   4   7   2
  0.0000000362   7   4   7   3
  0.5296767390   7   4   7   4
  0.4134221443   7   5   2   1
  -0.0000000774   7   5   2   2
  0.0000001623   7   5   3   1
  0.1334642551   7   5   3   2
  0.0000000774   7   5   3   3
  -0.0197105679   7   5   4   1
  -0.0000000628   7   5   4   2
  0.3352852007   7   5   4   3
  -0.3352851819   7   5   5   2
  -0.0000000628   7   5   5   3
  0.0171610447   7   5   5   4
  0.2891453639   7   5   6   2
  0.0000001135   7   5   6   3
  0.0753373998   7   5   6   4
  0.0000000362   7   5   7   2
  -0.0921136415   7   5   7   3
  0.5296767385   7   5   7   5
  -0.0000000731   7   6   4   2
  0.1862538129   7   6   4   3
  0.1862538190   7   6   5   2
  0.0000000731   7   6   5   3
  0.1928613741   7   6   7   1
  0.2960777591   7   6   7   6
  1.6075428149   7   7   1   1
  1.6796509388   7   7   2   2
  1.6796509376   7   7   3   3
  0.0651718967   7   7   4   2
  0.0000000256   7   7   4   3
  1.6871154495   7   7   4   4
  0.0000000256   7   7   5   2
  -0.0651718935   7   7   5   3
  1.6871154466   7   7   5   5
  0.0968063585   7   7   6   1
  1.6525367574   7   7   6   6
  1.8846023093   7   7   7   7
  0.1978915420   8   1   2   1
  -0.0000000480   8   1   2   2
  0.0000001017   8   1   3   1
  0.1045727919   8   1   3   2
  0.0000000480   8   1   3   3
  0.0578714735   8   1   4   1
  0.0058872136   8   1   4   3
  -0.0000000336   8   1   4   4
  -0.0058872159   8   1   5   2
  0.1027428470   8   1   5   4
  0.0000000336   8   1   5   5
  -0.1728320009   8   1   6   2
  -0.0000000888   8   1   6   3
  -0.0417853249   8   1   6   4
  -0.0000000508   8   1   7   2
  0.0988802774   8   1   7   3
  -0.0034001655   8   1   7   5
  0.3486200299   8   1   8   1
  0.3367399344   8   2   1   1
  -0.0000000531   8   2   2   1
  0.1301275132   8   2   2   2
  0.1157230558   8   2   3   1
  0.1363440142   8   2   3   3
  -0.0651297761   8   2   4   2
  -0.0000000806   8   2   4   3
  0.0314142826   8   2   4   4
  0.0506110374   8   2   5   1
  -0.0000000885   8   2   5   2
  0.1299387238   8   2   5   3
  0.0371612739   8   2   5   5
  -0.2840462700   8   2   6   1
  0.0000000478   8   2   6   2
  -0.1041795615   8   2   6   3
  0.1255214587   8   2   6   5
  0.0578269338   8   2   6   6
  -0.0000000477   8   2   7   1
  0.0810580215   8   2   7   2
  0.0000000372   8   2   7   3
  0.0694004795   8   2   7   4
  -0.0000000401   8   2   7   6
  -0.0730572741   8   2   7   7
  0.4486599685   8   2   8   2
  0.0000001731   8   3   1   1
  0.1157230606   8   3   2   1
  0.0000000701   8   3   2   2
  0.0000000531   8   3   3   1
  -0.0031082514   8   3   3   2
  0.0000000669   8   3   3   3
  -0.0506110442   8   3   4   1
  -0.0000000894   8   3   4   2
  0.1223426949   8   3   4   3
  0.0000000168   8   3   4   4
  0.0575337377   8   3   5   2
  0.0000000815   8   3   5   3
  0.0028734941   8   3   5   4
  0.0000000184   8   3   5   5
  -0.0000001460   8   3   6   1
  -0.1041795595   8   3   6   2
  -0.0000000478   8   3   6   3
  -0.1255214551   8   3   6   4
  0.0000000297   8   3   6   6
  0.0928203694   8   3   7   1
  0.0000000372   8   3   7   2
  -0.0810580242   8   3   7   3
  0.0694004820   8   3   7   5
  0.0779412964   8   3   7   6
  -0.0000000376   8   3   7   7
  0.1659154038   8   3   8   1
  0.0000001314   8   3   8   2
  0.1930396090   8   3   8   3
  0.1373318536   8   4   1   1
  -0.0558969398   8   4   2   2
  -0.1025263561   8   4   3   1
  -0.0000001133   8   4   3   2
  0.1939286644   8   4   3   3
  -0.0000000356   8   4   4   1
  -0.1228126814   8   4   4   2
  -0.0000000652   8   4   4   3
  0.0401609135   8   4   4   4
  0.1089860997   8   4   5   1
  0.0000000229   8   4   5   2
  -0.0486321935   8   4   5   3
  0.0238506478   8   4   5   5
  -0.0949432060   8   4   6   1
  0.0000000113   8   4   6   2
  -0.1719342184   8   4   6   3
  -0.0000000458   8   4   6   4
  0.1403029678   8   4   6   5
  0.0110442186   8   4   6   6
  0.0812594116   8   4   7   2
  -0.1709357624   8   4   7   4
  -0.0000000559   8   4   7   5
  -0.0000000190   8   4   7   6
  0.0320396286   8   4   7   7
  0.0000000209   8   4   8   1
  0.1681274774   8   4   8   2
  0.0000000784   8   4   8   3
  0.1978689347   8   4   8   4
  -0.0000000167   8   5   1   1
  0.1025263520   8   5   2   1
  -0.0000001216   8   5   2   2
  0.1249128030   8   5   3   2
  0.0000001049   8   5   3   3
  0.1089861038   8   5   4   1
  -0.0000000184   8   5   4   2
  0.0317362531   8   5   4   3
  0.0000000356   8   5   5   1
  -0.1397086108   8   5   5   2
  -0.0000000698   8   5   5   3
  0.0081551363   8   5   5   4
  0.0000000115   8   5   6   1
  0.1719342230   8   5   6   2
  0.0000000113   8   5   6   3
  0.1403029683   8   5   6   4
  0.0000000458   8   5   6   5
  -0.0562390889   8   5   7   1
  0.0812594141   8   5   7   3
  -0.0000000559   8   5   7   4
  0.1709357591   8   5   7   5
  -0.1569998914   8   5   7   6
  -0.0465515725   8   5   8   1
  0.0000000137   8   5   8   2
  -0.0663539696   8   5   8   3
  0.2469156889   8   5   8   5
  -0.4167255157   8   6   2   1
  0.0000000872   8   6   2   2
  -0.0000002142   8   6   3   1
  -0.1901106015   8   6   3   2
  -0.0000000872   8   6   3   3
  -0.0613624931   8   6   4   1
  0.0000000187   8   6   4   2
  -0.2828681916   8   6   4   3
  0.2828681899   8   6   5   2
  0.0000000187   8   6   5   3
  0.0226298786   8   6   5   4
  -0.2119472693   8   6   6   2
  -0.0000001089   8   6   6   3
  -0.1372415800   8   6   6   4
  0.0000000166   8   6   6   5
  -0.0000000206   8   6   7   2
  0.0400112247   8   6   7   3
  -0.0000000459   8   6   7   4
  -0.3779713302   8   6   7   5
  -0.1181242332   8   6   8   1
  -0.0594566563   8   6   8   3
  0.0000000726   8   6   8   4
  -0.1621249156   8   6   8   5
  0.5327930817   8   6   8   6
  -0.0000000999   8   7   2   1
  0.1239648859   8   7   2   2
  0.1944477525   8   7   3   1
  0.0000000569   8   7   3   2
  -0.1239648904   8   7   3   3
  0.1261012118   8   7   4   2
  -0.1250469239   8   7   4   4
  -0.0701294727   8   7   5   1
  0.1261012100   8   7   5   3
  -0.0000000409   8   7   5   4
  0.1250469157   8   7   5   5
  -0.0000000675   8   7   6   2
  0.1313690166   8   7   6   3
  -0.0000000255   8   7   6   4
  -0.2103109967   8   7   6   5
  -0.1696635581   8   7   7   2
  -0.0000000872   8   7   7   3
  0.1090292106   8   7   7   4
  -0.0000000132   8   7   7   5
  -0.0659750168   8   7   8   2
  -0.0767793340   8   7   8   4
  -0.0000000344   8   7   8   5
  0.2758729356   8   7   8   7
  1.8997544517   8   8   1   1
  0.0000000161   8   8   2   1
  1.8884595595   8   8   2   2
  0.2903601537   8   8   3   1
  0.0000001598   8   8   3   2
  1.5774889341   8   8   3   3
  0.0000000340   8   8   4   1
  0.1839237016   8   8   4   2
  0.0000001047   8   8   4   3
  1.5278861459   8   8   4   4
  -0.0759827083   8   8   5   1
  -0.0000000655   8   8   5   2
  0.0840968166   8   8   5   3
  0.0000000186   8   8   5   4
  1.6810413964   8   8   5   5
  -0.2416672848   8   8   6   1
  0.0332233699   8   8   6   3
  0.0000000591   8   8   6   4
  -0.1318760507   8   8   6   5
  1.8128725526   8   8   6   6
  -0.1017938736   8   8   7   2
  0.1102489003   8   8   7   4
  0.0000000494   8   8   7   5
  1.6417513969   8   8   7   7
  0.0000001186   8   8   8   1
  0.2522657633   8   8   8   2
  0.0000001297   8   8   8   3
  0.0164331462   8   8   8   4
  -0.0000001638   8   8   8   6
  0.1692637544   8   8   8   7
  2.2276186976   8   8   8   8
  0.0000000124   9   1   1   1
  -0.0000001017   9   1   2   1
  0.1045727875   9   1   2   2
  0.1978915356   9   1   3   1
  0.0000000480   9   1   3   2
  -0.1045727927   9   1   3   3
  0.0058872300   9   1   4   2
  -0.1027428604   9   1   4   4
  -0.0578714740   9   1   5   1
  0.0058871882   9   1   5   3
  -0.0000000336   9   1   5   4
  0.1027428331   9   1   5   5
  -0.0000000192   9   1   6   1
  0.0000000888   9   1   6   2
  -0.1728320010   9   1   6   3
  0.0417853232   9   1   6   5
  0.0000000278   9   1   6   6
  -0.0988802791   9   1   7   2
  -0.0000000508   9   1   7   3
  -0.0034001695   9   1   7   4
  0.1659154042   9   1   8   2
  0.0465515684   9   1   8   4
  0.0000000209   9   1   8   5
  0.0280214032   9   1   8   7
  0.2083320928   9   1   8   8
  0.3486200277   9   1   9   1
  -0.0000001731   9   2   1   1
  0.1157230496   9   2   2   1
  -0.0000000669   9   2   2   2
  0.0000000531   9   2   3   1
  -0.0031082347   9   2   3   2
  -0.0000000701   9   2   3   3
  -0.0506110188   9   2   4   1
  0.0000000815   9   2   4   2
  -0.0575337514   9   2   4   3
  -0.0000000184   9   2   4   4
  -0.1223426841   9   2   5   2
  -0.0000000894   9   2   5   3
  0.0028734753   9   2   5   4
  -0.0000000168   9   2   5   5
  0.0000001460   9   2   6   1
  -0.1041795548   9   2   6   2
  -0.0000000478   9   2   6   3
  -0.1255214422   9   2   6   4
  -0.0000000297   9   2   6   6
  -0.0928203721   9   2   7   1
  0.0000000372   9   2   7   2
  -0.0810580182   9   2   7   3
  0.0694004790   9   2   7   5
  -0.0779412949   9   2   7   6
  0.0000000376   9   2   7   7
  0.1659154027   9   2   8   1
  -0.0000001314   9   2   8   2
  0.1013996541   9   2   8   3
  -0.0000000370   9   2   8   4
  -0.0390868382   9   2   8   5
  -0.0594566740   9   2   8   6
  -0.0000000790   9   2   8   8
  0.1930396027   9   2   9   2
  0.3367399320   9   3   1   1
  0.0000000531   9   3   2   1
  0.1363440326   9   3   2   2
  -0.1157230670   9   3   3   1
  0.1301274903   9   3   3   3
  -0.1299387385   9   3   4   2
  -0.0000000885   9   3   4   3
  0.0371612879   9   3   4   4
  -0.0506110762   9   3   5   1
  -0.0000000806   9   3   5   2
  0.0651297667   9   3   5   3
  0.0314142587   9   3   5   5
  -0.2840462679   9   3   6   1
  -0.0000000478   9   3   6   2
  0.1041795629   9   3   6   3
  -0.1255214698   9   3   6   5
  0.0578269431   9   3   6   6
  -0.0000000477   9   3   7   1
  -0.0810580335   9   3   7   2
  -0.0000000372   9   3   7   3
  -0.0694004759   9   3   7   4
  -0.0000000401   9   3   7   6
  -0.0730572783   9   3   7   7
  0.1542206938   9   3   8   2
  0.0000001314   9   3   8   3
  0.0626866526   9   3   8   4
  -0.0000000277   9   3   8   5
  0.0659750085   9   3   8   7
  0.1536500191   9   3   8   8
  -0.1659154025   9   3   9   1
  -0.0000001314   9   3   9   2
  0.4486599745   9   3   9   3
  -0.0000000167   9   4   1   1
  -0.1025263151   9   4   2   1
  0.0000001049   9   4   2   2
  -0.1249128078   9   4   3   2
  -0.0000001216   9   4   3   3
  -0.1089861250   9   4   4   1
  0.0000000698   9   4   4   2
  -0.1397085810   9   4   4   3
  -0.0000000356   9   4   5   1
  0.0317362152   9   4   5   2
  0.0000000184   9   4   5   3
  -0.0081551136   9   4   5   4
  0.0000000115   9   4   6   1
  -0.1719341996   9   4   6   2
  -0.0000000113   9   4   6   3
  -0.1403029577   9   4   6   4
  -0.0000000458   9   4   6   5
  -0.0562390906   9   4   7   1
  -0.0812594137   9   4   7   3
  0.0000000559   9   4   7   4
  -0.1709357470   9   4   7   5
  -0.1569998854   9   4   7   6
  0.0465515696   9   4   8   1
  -0.0000000277   9   4   8   2
  0.0390868405   9   4   8   3
  -0.0197797484   9   4   8   5
  0.1621248902   9   4   8   6
  0.0000000344   9   4   8   7
  -0.0000000148   9   4   8   8
  -0.0000000209   9   4   9   1
  0.0663539538   9   4   9   2
  0.0000000137   9   4   9   3
  0.2469156772   9   4   9   4
  -0.1373318597   9   5   1   1
  -0.1939286698   9   5   2   2
  -0.1025264060   9   5   3   1
  -0.0000001133   9   5   3   2
  0.0558969401   9   5   3   3
  -0.0000000356   9   5   4   1
  -0.0486322320   9   5   4   2
  -0.0000000229   9   5   4   3
  -0.0238506236   9   5   4   4
  0.1089860852   9   5   5   1
  0.0000000652   9   5   5   2
  -0.1228127254   9   5   5   3
  -0.0401609296   9   5   5   5
  0.0949432056   9   5   6   1
  0.0000000113   9   5   6   2
  -0.1719342426   9   5   6   3
  -0.0000000458   9   5   6   4
  0.1403029794   9   5   6   5
  -0.0110442329   9   5   6   6
  0.0812594109   9   5   7   2
  -0.1709357943   9   5   7   4
  -0.0000000559   9   5   7   5
  0.0000000190   9   5   7   6
  -0.0320396299   9   5   7   7
  0.0000000209   9   5   8   1
  -0.0626866646   9   5   8   2
  -0.0000000370   9   5   8   3
  0.0688265136   9   5   8   4
  0.0000000726   9   5   8   6
  -0.0767793534   9   5   8   7
  -0.1217334514   9   5   8   8
  0.0465515633   9   5   9   1
  0.0000000784   9   5   9   2
  -0.1681274908   9   5   9   3
  0.1978689553   9   5   9   5
  -0.0000000387   9   6   1   1
  0.0000002142   9   6   2   1
  -0.1901106075   9   6   2   2
  -0.4167255060   9   6   3   1
  -0.0000000872   9   6   3   2
  0.1901105836   9   6   3   3
  -0.2828681751   9   6   4   2
  -0.0000000187   9   6   4   3
  -0.0226298847   9   6   4   4
  0.0613624890   9   6   5   1
  0.0000000187   9   6   5   2
  -0.2828682015   9   6   5   3
  0.0226298794   9   6   5   5
  0.0000000332   9   6   6   1
  0.0000001089   9   6   6   2
  -0.2119472518   9   6   6   3
  0.0000000166   9   6   6   4
  0.1372415731   9   6   6   5
  -0.0000000214   9   6   6   6
  -0.0400112255   9   6   7   2
  -0.0000000206   9   6   7   3
  -0.3779713190   9   6   7   4
  0.0000000459   9   6   7   5
  -0.0594566844   9   6   8   2
  0.1621249004   9   6   8   4
  0.0000000726   9   6   8   5
  -0.1131908193   9   6   8   7
  -0.2877634594   9   6   8   8
  -0.1181242342   9   6   9   1
  0.0594566156   9   6   9   3
  -0.0000000726   9   6   9   4
  0.1621249552   9   6   9   5
  0.5327930637   9   6   9   6
  -0.1944477590   9   7   2   1
  0.0000000569   9   7   2   2
  -0.0000000999   9   7   3   1
  -0.1239648913   9   7   3   2
  -0.0000000569   9   7   3   3
  -0.0701294743   9   7   4   1
  -0.1261012065   9   7   4   3
  0.0000000409   9   7   4   4
  0.1261012125   9   7   5   2
  -0.1250469294   9   7   5   4
  -0.0000000409   9   7   5   5
  -0.1313690179   9   7   6   2
  -0.0000000675   9   7   6   3
  -0.2103109918   9   7   6   4
  0.0000000255   9   7   6   5
  0.0000000872   9   7   7   2
  -0.1696635617   9   7   7   3
  -0.0000000132   9   7   7   4
  -0.1090292121   9   7   7   5
  0.0000000163   9   7   7   6
  -0.0280214111   9   7   8   1
  0.0659750078   9   7   8   3
  0.0000000344   9   7   8   4
  -0.0767793426   9   7   8   5
  0.1131908256   9   7   8   6
  -0.0000000964   9   7   8   8
  0.0659750053   9   7   9   2
  0.0767792995   9   7   9   4
  0.0000000344   9   7   9   5
  0.2758729380   9   7   9   7
  0.2903601464   9   8   2   1