 &FCI NORB= 16,NELEC= ,MS0= ,
  ORBSYM=1,2,1,2,1,2,1,2,1,2,1,2,1,2,1,2,
  ISYM=1,
 /
  -54.1127939512298752333663288   1   1   0   0
  -51.0062474562741243744312669   2   2   0   0
  2.8613400771927546273332155   3   1   0   0
  -49.5672078295345883702793799   3   3   0   0
  3.8913520254912885576459303   4   2   0   0
  -48.4782480599122038711357163   4   4   0   0
  1.0019486444254024348765597   5   1   0   0
  4.4144152608415492267113223   5   3   0   0
  -47.4606837864945703131525079   5   5   0   0
  -1.4614430153994808492257107   6   2   0   0
  -4.7048555238872813433204101   6   4   0   0
  -46.5144105751844350038481934   6   6   0   0
  0.4275515388023077845147668   7   1   0   0
  1.6147449456877793760867235   7   3   0   0
  4.7264500502666173531451932   7   5   0   0
  -46.0847466044790010641918343   7   7   0   0
  -0.4800587487794334418111930   8   2   0   0
  -1.3291822569154847499817151   8   4   0   0
  3.9205722674832985674697738   8   6   0   0
  -48.5943557179745369012380252   8   8   0   0
  0.1068576563985075278395698   9   1   0   0
  0.3836911442852017906091078   9   3   0   0
  0.9491771964980528775157609   9   5   0   0
  2.9481164851949683836096483   9   7   0   0
  -47.3300747578415581529043266   9   9   0   0
  -0.3363622633818561524776669   10   2   0   0
  -0.9060922911691373649034631   10   4   0   0
  2.6321815778035100308329675   10   6   0   0
  2.3172554816874799676895691   10   8   0   0
  -43.4289356193356610447153798   10   10   0   0
  0.1690838313037387186099636   11   1   0   0
  0.6274700325563549174745503   11   3   0   0
  1.8555512821530153466653701   11   5   0   0
  1.8687112608315579187490130   11   7   0   0
  3.7955748192279799013704178   11   9   0   0
  -42.2645089847329984422685811   11   11   0   0
  -0.3716488999879202781428944   12   2   0   0
  -1.2335898922053813997479210   12   4   0   0
  1.1451556352059881760396820   12   6   0   0
  0.7629895201148608752106384   12   8   0   0
  4.5896539443828316962026292   12   10   0   0
  -41.6997205646452542282531795   12   12   0   0
  0.1711313552137661009311387   13   1   0   0
  0.7965777797389743675182672   13   3   0   0
  0.6408382352688966054898856   13   5   0   0
  0.6830736668104890885189207   13   7   0   0
  1.2581080991063768870219519   13   9   0   0
  4.6033380853433509827254966   13   11   0   0
  -41.3969178812048355098340835   13   13   0   0
  -0.4881418523863892966474509   14   2   0   0
  -0.3409325977164670007368841   14   4   0   0
  0.4334981773624031475833362   14   6   0   0
  0.3008897476166493278881831   14   8   0   0
  1.5438347004449242128032438   14   10   0   0
  4.3516606238860031652393445   14   12   0   0
  -41.4108106692461177544828388   14   14   0   0
  -0.2526799823768461350503856   15   1   0   0
  -0.1735656944099367438028025   15   3   0   0
  -0.2311280836164173457802917   15   5   0   0
  -0.2489498498858384589738080   15   7   0   0
  -0.4486154875035391897952763   15   9   0   0
  -1.4161503594132682781747690   15   11   0   0
  -3.8590148634506911129449236   15   13   0   0
  -42.0564315570485121043020627   15   15   0   0
  -0.0808305600283585334864256   16   2   0   0
  -0.0944263076741811424597017   16   4   0   0
  0.1159135616958036352208694   16   6   0   0
  0.0822880455400286092704221   16   8   0   0
  0.4057700005649749197544907   16   10   0   0
  0.9825819292239625912799283   16   12   0   0
  2.8496752360908894630142640   16   14   0   0
  -44.6766366899936926415648486   16   16   0   0
  4.5105492871   1   1   1   1
  1.5869130486   2   1   2   1
  3.6680341942   2   2   1   1
  3.9356633511   2   2   2   2
  -0.8399374510   3   1   1   1
  0.2664725812   3   1   2   2
  1.1026933374   3   1   3   1
  1.0340939950   3   2   2   1
  1.2841803196   3   2   3   2
  3.6374243504   3   3   1   1
  3.5168074388   3   3   2   2
  -0.1201650935   3   3   3   1
  3.6964293406   3   3   3   3
  -0.5534573553   4   1   2   1
  0.2446474632   4   1   3   2
  0.7933800375   4   1   4   1
  -0.8642006727   4   2   1   1
  -0.1534082474   4   2   2   2
  0.7087123033   4   2   3   1
  0.0593742656   4   2   3   3
  0.9151629218   4   2   4   2
  1.0189143547   4   3   2   1
  0.9815379463   4   3   3   2
  -0.0397919883   4   3   4   1
  1.1359954190   4   3   4   3
  3.6152115837   4   4   1   1
  3.4942086552   4   4   2   2
  -0.1206581250   4   4   3   1
  3.4534996439   4   4   3   3
  -0.1602591557   4   4   4   2
  3.5603914938   4   4   4   4
  -0.0191022929   5   1   1   1
  -0.4158640372   5   1   2   2
  -0.3951422279   5   1   3   1
  0.1764476237   5   1   3   3
  0.1982329612   5   1   4   2
  -0.0380912717   5   1   4   4
  0.5866014921   5   1   5   1
  -0.5653978861   5   2   2   1
  -0.0647533605   5   2   3   2
  0.4990320694   5   2   4   1
  0.1090738514   5   2   4   3
  0.6643795828   5   2   5   2
  -0.8758492455   5   3   1   1
  -0.1761682021   5   3   2   2
  0.6975378057   5   3   3   1
  -0.1829695686   5   3   3   3
  0.6856870679   5   3   4   2
  -0.0525737134   5   3   4   4
  -0.0154348446   5   3   5   1
  0.8066363432   5   3   5   3
  1.0057305281   5   4   2   1
  0.9695513838   5   4   3   2
  -0.0387865514   5   4   4   1
  0.9438878129   5   4   4   3
  -0.0674278027   5   4   5   2
  1.1214203641   5   4   5   4
  3.5890054196   5   5   1   1
  3.4713929475   5   5   2   2
  -0.1172743834   5   5   3   1
  3.4218668687   5   5   3   3
  -0.1657932822   5   5   4   2
  3.4776366409   5   5   4   4
  -0.0471956332   5   5   5   1
  -0.1069927189   5   5   5   3
  3.5277301548   5   5   5   5
  0.0050515911   6   1   2   1
  0.3032599989   6   1   3   2
  0.2952195144   6   1   4   1
  -0.1442963115   6   1   4   3
  -0.1539713616   6   1   5   2
  0.0263056106   6   1   5   4
  0.4396758727   6   1   6   1
  0.0235039077   6   2   1   1
  0.4265025020   6   2   2   2
  0.4014895985   6   2   3   1
  0.0683196788   6   2   3   3
  0.0409691985   6   2   4   2
  -0.0683725530   6   2   4   4
  -0.3586645788   6   2   5   1
  -0.0971317196   6   2   5   3
  -0.0180249818   6   2   5   5
  0.4848407676   6   2   6   2
  0.5726999706   6   3   2   1
  0.0850758641   6   3   3   2
  -0.4859638718   6   3   4   1
  0.0907865691   6   3   4   3
  -0.4746943471   6   3   5   2
  -0.1069389696   6   3   5   4
  -0.0156713242   6   3   6   1
  0.6643209026   6   3   6   3
  0.8831355622   6   4   1   1
  0.1991961820   6   4   2   2
  -0.6818678449   6   4   3   1
  0.2121865522   6   4   3   3
  -0.6638994248   6   4   4   2
  0.1298269341   6   4   4   4
  0.0216630254   6   4   5   1
  -0.7392472102   6   4   5   3
  0.0549942846   6   4   5   5
  0.0527270151   6   4   6   2
  0.7980620218   6   4   6   4
  -0.9878004784   6   5   2   1
  -0.9442472818   6   5   3   2
  0.0460093796   6   5   4   1
  -1.0282110501   6   5   4   3
  -0.0357030310   6   5   5   2
  -0.9723572605   6   5   5   4
  0.0849712726   6   5   6   1
  -0.0263779098   6   5   6   3
  1.0627820125   6   5   6   5
  3.5501724823   6   6   1   1
  3.4258397023   6   6   2   2
  -0.1239332526   6   6   3   1
  3.5233357312   6   6   3   3
  -0.0253921024   6   6   4   2
  3.4340122667   6   6   4   4
  0.0994646027   6   6   5   1
  -0.1138448958   6   6   5   3
  3.4121380719   6   6   5   5
  -0.0095926529   6   6   6   2
  0.1326421871   6   6   6   4
  3.5021951991   6   6   6   6
  -0.0061438451   7   1   1   1
  -0.0037845282   7   1   2   2
  0.0022373244   7   1   3   1
  -0.2359432993   7   1   3   3
  -0.2288338451   7   1   4   2
  0.0986205355   7   1   4   4
  -0.2266815244   7   1   5   1
  0.1064626997   7   1   5   3
  0.0730003466   7   1   5   5
  -0.1117939848   7   1   6   2
  -0.0832707069   7   1   6   4
  -0.0949804271   7   1   6   6
  0.3264668129   7   1   7   1
  -0.0034424651   7   2   2   1
  -0.3051327709   7   2   3   2
  -0.2990118421   7   2   4   1
  -0.0583292547   7   2   4   3
  -0.0477269028   7   2   5   2
  0.1551946694   7   2   5   4
  -0.2497036820   7   2   6   1
  -0.1717663530   7   2   6   3
  -0.0222934664   7   2   6   5
  0.4604591425   7   2   7   2
  -0.0197948616   7   3   1   1
  -0.4276274863   7   3   2   2
  -0.4063435741   7   3   3   1
  -0.0970102676   7   3   3   3
  -0.0733276929   7   3   4   2
  0.0026776476   7   3   4   4
  0.3315929863   7   3   5   1
  0.0299530119   7   3   5   3
  0.0691370062   7   3   5   5
  -0.4305323184   7   3   6   2
  -0.0995434768   7   3   6   4
  -0.0068613817   7   3   6   6
  0.0977144585   7   3   7   1
  0.4806207809   7   3   7   3
  -0.5767331936   7   4   2   1
  -0.1235770295   7   4   3   2
  0.4519376373   7   4   4   1
  -0.0036816287   7   4   4   3
  0.5672557849   7   4   5   2
  -0.0542646422   7   4   5   4
  -0.1111396346   7   4   6   1
  -0.5061234749   7   4   6   3
  -0.0558434989   7   4   6   5
  0.0392363920   7   4   7   2
  0.5976603685   7   4   7   4
  -0.8862593209   7   5   1   1
  -0.2435516572   7   5   2   2
  0.6408465140   7   5   3   1
  -0.0958799666   7   5   3   3
  0.7838072165   7   5   4   2
  -0.1683651113   7   5   4   4
  0.1386934153   7   5   5   1
  0.7025883940   7   5   5   3
  -0.1653391122   7   5   5   5
  -0.0485187831   7   5   6   2
  -0.6914969948   7   5   6   4
  -0.0358188531   7   5   6   6
  -0.0936452488   7   5   7   1
  0.0281305436   7   5   7   3
  0.7954744481   7   5   7   5
  -0.9419200034   7   6   2   1
  -1.1197678890   7   6   3   2
  -0.1744117317   7   6   4   1
  -0.9967797109   7   6   4   3
  -0.0450813846   7   6   5   2
  -0.9789471798   7   6   5   4
  -0.1308401290   7   6   6   1
  0.0189978688   7   6   6   3
  0.9745010975   7   6   6   5
  0.1532680272   7   6   7   2
  -0.0029615237   7   6   7   4
  1.1093404751   7   6   7   6
  3.4740253445   7   7   1   1
  3.6798821219   7   7   2   2
  0.2053107200   7   7   3   1
  3.4728319738   7   7   3   3
  -0.0028676257   7   7   4   2
  3.4375346353   7   7   4   4
  -0.2084653635   7   7   5   1
  -0.0389352979   7   7   5   3
  3.4179823145   7   7   5   5
  0.2411881976   7   7   6   2
  0.0594011076   7   7   6   4
  3.4038639340   7   7   6   6
  -0.0262835316   7   7   7   1
  -0.2538268148   7   7   7   3
  -0.0731108959   7   7   7   5
  3.5829346386   7   7   7   7
  0.0012253047   8   1   2   1
  -0.0040519815   8   1   3   2
  -0.0050102048   8   1   4   1
  0.1857674150   8   1   4   3
  0.1827655499   8   1   5   2
  -0.1840412703   8   1   5   4
  -0.1818459808   8   1   6   1
  0.1917367835   8   1   6   3
  -0.0727197739   8   1   6   5
  -0.2035601614   8   1   7   2
  0.0785724432   8   1   7   4
  -0.0132329288   8   1   7   6
  0.3762546254   8   1   8   1
  0.0057765956   8   2   1   1
  -0.0003046299   8   2   2   2
  -0.0059506498   8   2   3   1
  0.2373470129   8   2   3   3
  0.2308077567   8   2   4   2
  -0.0488126958   8   2   4   4
  0.2328767141   8   2   5   1
  -0.0576121226   8   2   5   3
  -0.1113372579   8   2   5   5
  0.0640421382   8   2   6   2
  0.1201293308   8   2   6   4
  0.1087789770   8   2   6   6
  -0.2972672048   8   2   7   1
  -0.1274808683   8   2   7   3
  0.1078003599   8   2   7   5
  0.0273797451   8   2   7   7
  0.3291624735   8   2   8   2
  -0.0028722812   8   3   2   1
  0.3074403179   8   3   3   2
  0.3076539136   8   3   4   1
  -0.0571976539   8   3   4   3
  -0.0614655733   8   3   5   2
  0.0105360068   8   3   5   4
  0.3675075500   8   3   6   1
  -0.0037389904   8   3   6   3
  0.1053015105   8   3   6   5
  -0.2866194227   8   3   7   2
  -0.1196857246   8   3   7   4
  -0.1562815237   8   3   7   6
  -0.0949752261   8   3   8   1
  0.3842287939   8   3   8   3
  0.0086109182   8   4   1   1
  0.4263772907   8   4   2   2
  0.4162484405   8   4   3   1
  -0.0524528704   8   4   3   3
  -0.0648645422   8   4   4   2
  0.0339164662   8   4   4   4
  -0.4790148743   8   4   5   1
  0.0199041469   8   4   5   3
  0.0372074330   8   4   5   5
  0.3831156502   8   4   6   2
  -0.0189087318   8   4   6   4
  -0.0955560149   8   4   6   6
  0.1067200830   8   4   7   1
  -0.3686723957   8   4   7   3
  -0.1222442348   8   4   7   5
  0.2453468622   8   4   7   7
  -0.1227800935   8   4   8   2
  0.4799504082   8   4   8   4
  0.5854292187   8   5   2   1
  -0.0689952815   8   5   3   2
  -0.6522318209   8   5   4   1
  0.0509815189   8   5   4   3
  -0.5242884850   8   5   5   2
  0.0550076566   8   5   5   4
  -0.1353560226   8   5   6   1
  0.5088749696   8   5   6   3
  -0.0464872944   8   5   6   5
  0.1549832684   8   5   7   2
  -0.4967098124   8   5   7   4
  0.1276324774   8   5   7   6
  -0.0086980937   8   5   8   1
  -0.1644051503   8   5   8   3
  0.6345962529   8   5   8   5
  -0.8902290485   8   6   1   1
  0.0442835867   8   6   2   2
  0.9318322716   8   6   3   1
  -0.1381560911   8   6   3   3
  0.7429645315   8   6   4   2
  -0.1491301468   8   6   4   4
  -0.1936096610   8   6   5   1
  0.7223888588   8   6   5   3
  -0.1438625382   8   6   5   5
  0.2172240884   8   6   6   2
  -0.7108293461   8   6   6   4
  -0.1258649389   8   6   6   6
  -0.0159723344   8   6   7   1
  -0.2310503510   8   6   7   3
  0.6989224835   8   6   7   5
  0.1170501899   8   6   7   7
  0.0166507833   8   6   8   2
  0.2351156231   8   6   8   4
  0.8918597120   8   6   8   6
  -1.3982508397   8   7   2   1
  -1.0853936131   8   7   3   2
  0.3154173212   8   7   4   1
  -1.0533432475   8   7   4   3
  0.3486038419   8   7   5   2
  -1.0384774732   8   7   5   4
  -0.0276428194   8   7   6   1
  -0.3646932660   8   7   6   3
  1.0275556445   8   7   6   5
  0.0345055073   8   7   7   2
  0.3743957655   8   7   7   4
  1.0184298647   8   7   7   6
  -0.0066867386   8   7   8   1
  -0.0287169830   8   7   8   3
  -0.3689331077   8   7   8   5
  1.3323705424   8   7   8   7
  4.2179349985   8   8   1   1
  3.6388413423   8   8   2   2
  -0.5775688240   8   8   3   1
  3.5873092772   8   8   3   3
  -0.6250449017   8   8   4   2
  3.5612965657   8   8   4   4
  -0.0433262713   8   8   5   1
  -0.6441853289   8   8   5   3
  3.5373486700   8   8   5   5
  0.0558742452   8   8   6   2
  0.6556655925   8   8   6   4
  3.5081725025   8   8   6   6
  -0.0128156357   8   8   7   1
  -0.0563387533   8   8   7   3
  -0.6607010814   8   8   7   5
  3.4743655933   8   8   7   7
  0.0133408121   8   8   8   2
  0.0433725041   8   8   8   4
  -0.6431277847   8   8   8   6
  4.0208386693   8   8   8   8
  -0.0002111626   9   1   1   1
  0.0018425076   9   1   2   2
  0.0020660965   9   1   3   1
  0.0272071813   9   1   3   3
  0.0269722289   9   1   4   2
  -0.1256243072   9   1   4   4
  0.0234746685   9   1   5   1
  -0.1226836015   9   1   5   3
  0.0664763844   9   1   5   5
  0.1153838621   9   1   6   2
  -0.0639858621   9   1   6   4
  -0.0107740448   9   1   6   6
  -0.1119892390   9   1   7   1
  0.0525349738   9   1   7   3
  -0.0097737610   9   1   7   5
  -0.0043446959   9   1   7   7
  -0.0214287498   9   1   8   2
  0.0075836160   9   1   8   4
  -0.0029224989   9   1   8   6
  -0.0018582883   9   1   8   8
  0.2999456383   9   1   9   1
  0.0024271469   9   2   2   1
  0.0379027724   9   2   3   2
  0.0346213203   9   2   4   1
  -0.1500132953   9   2   4   3
  -0.1492348293   9   2   5   2
  0.0088472670   9   2   5   4
  0.1708627541   9   2   6   1
  -0.0115201143   9   2   6   3
  -0.0232247200   9   2   6   5
  -0.0014137754   9   2   7   2
  0.0117643221   9   2   7   4
  0.0125641768   9   2   7   6
  -0.1337522493   9   2   8   1
  0.0259031036   9   2   8   3
  0.0084742318   9   2   8   5
  0.0050406230   9   2   8   7
  0.2473832986   9   2   9   2
  0.0014534187   9   3   1   1
  0.0475481536   9   3   2   2
  0.0457079055   9   3   3   1
  -0.1967113991   9   3   3   3
  -0.1970642658   9   3   4   2
  0.0121668465   9   3   4   4
  -0.2354329931   9   3   5   1
  0.0121554310   9   3   5   3
  -0.0002278743   9   3   5   5
  0.0215420486   9   3   6   2
  -0.0016667091   9   3   6   4
  -0.0162246850   9   3   6   6
  0.1939397778   9   3   7   1
  -0.0200245855   9   3   7   3
  -0.0241931114   9   3   7   5
  -0.0132307191   9   3   7   7
  -0.1657754512   9   3   8   2
  0.0690029518   9   3   8   4
  -0.0078882123   9   3   8   6
  -0.0059189644   9   3   8   8
  -0.0777076164   9   3   9   1
  0.2716687435   9   3   9   3
  0.0565475626   9   4   2   1
  -0.2570326598   9   4   3   2
  -0.3094820702   9   4   4   1
  0.0112711781   9   4   4   3
  -0.0378451912   9   4   5   2
  -0.0089667195   9   4   5   4
  -0.2612695210   9   4   6   1
  0.0527377218   9   4   6   3
  -0.0036365213   9   4   6   5
  0.2263106756   9   4   7   2
  -0.0266759320   9   4   7   4
  0.0699205606   9   4   7   6
  0.0280673905   9   4   8   1
  -0.2216445411   9   4   8   3
  0.1204867103   9   4   8   5
  0.0050455599   9   4   8   7
  -0.0926726180   9   4   9   2
  0.3089768527   9   4   9   4
  0.0623852868   9   5   1   1
  -0.3343684737   9   5   2   2
  -0.3947564296   9   5   3   1
  0.0092602052   9   5   3   3
  -0.0490287052   9   5   4   2
  -0.0195583560   9   5   4   4
  0.3400292313   9   5   5   1
  -0.0748885575   9   5   5   3
  -0.0204405138   9   5   5   5
  -0.3021136267   9   5   6   2
  0.0700611430   9   5   6   4
  0.0085528343   9   5   6   6
  -0.0379119147   9   5   7   1
  0.2865887816   9   5   7   3
  -0.0289246605   9   5   7   5
  -0.1376455120   9   5   7   7
  0.0434457287   9   5   8   2
  -0.2940293108   9   5   8   4
  -0.1866018891   9   5   8   6
  0.0037728501   9   5   8   8
  -0.0051747274   9   5   9   1
  -0.1100213552   9   5   9   3
  0.3538487254   9   5   9   5
  0.4829084001   9   6   2   1
  0.0465745198   9   6   3   2
  -0.4330256633   9   6   4   1
  0.0873113318   9   6   4   3
  -0.3849694346   9   6   5   2
  0.0895007528   9   6   5   4
  -0.0495509703   9   6   6   1
  0.3708097288   9   6   6   3
  -0.0793294300   9   6   6   5
  0.0617269424   9   6   7   2
  -0.3592054206   9   6   7   4
  -0.0202001678   9   6   7   6
  -0.0076762813   9   6   8   1
  -0.0620392376   9   6   8   3
  0.3818943657   9   6   8   5
  -0.2701201603   9   6   8   7
  0.0080758910   9   6   9   2
  0.1308787961   9   6   9   4
  0.3940570728   9   6   9   6
  -0.5568006108   9   7   1   1
  -0.0295816439   9   7   2   2
  0.5249221258   9   7   3   1
  -0.0922925926   9   7   3   3
  0.4575030716   9   7   4   2
  -0.1006423864   9   7   4   4
  -0.0686170706   9   7   5   1
  0.4415756390   9   7   5   3
  -0.0970538138   9   7   5   5
  0.0842886861   9   7   6   2
  -0.4318826474   9   7   6   4
  -0.0813373502   9   7   6   6
  -0.0127389955   9   7   7   1
  -0.0912612215   9   7   7   3
  0.4238418170   9   7   7   5
  0.0047751968   9   7   7   7
  0.0139128864   9   7   8   2
  0.0868724910   9   7   8   4
  0.4701143923   9   7   8   6
  -0.3634097907   9   7   8   8
  -0.0023835609   9   7   9   1
  -0.0100498467   9   7   9   3
  -0.1509315173   9   7   9   5
  0.3997004913   9   7   9   7
  -0.5693676545   9   8   2   1
  -0.4800531826   9   8   3   2
  0.0898256745   9   8   4   1
  -0.4623332414   9   8   4   3
  0.1073116173   9   8   5   2
  -0.4539906848   9   8   5   4
  -0.0158884728   9   8   6   1
  -0.1147294340   9   8   6   3
  0.4478045546   9   8   6   5
  0.0203432564   9   8   7   2
  0.1175907413   9   8   7   4
  0.4451791913   9   8   7   6
  -0.0038962991   9   8   8   1
  -0.0177879961   9   8   8   3
  -0.1084069687   9   8   8   5
  0.5198867368   9   8   8   7
  0.0032059632   9   8   9   2
  0.0091846139   9   8   9   4
  -0.1531188044   9   8   9   6
  0.4051576998   9   8   9   8
  4.2179349985   9   9   1   1
  3.6388413423   9   9   2   2
  -0.5775688240   9   9   3   1
  3.5873092772   9   9   3   3
  -0.6250449017   9   9   4   2
  3.5612965657   9   9   4   4
  -0.0433262713   9   9   5   1
  -0.6441853289   9   9   5   3
  3.5373486700   9   9   5   5
  0.0558742452   9   9   6   2
  0.6556655925   9   9   6   4
  3.5081725025   9   9   6   6
  -0.0128156357   9   9   7   1
  -0.0563387533   9   9   7   3
  -0.6607010814   9   9   7   5
  3.4743655933   9   9   7   7
  0.0133408121   9   9   8   2
  0.0433725041   9   9   8   4
  -0.6431277847   9   9   8   6
  4.0208386693   9   9   8   8
  -0.0018582883   9   9   9   1
  -0.0059189644   9   9   9   3
  0.0037728501   9   9   9   5
  -0.3634097907   9   9   9   7
  4.0208386693   9   9   9   9
  -0.0015663067   10   1   2   1
  -0.0204505256   10   1   3   2
  -0.0183349075   10   1   4   1
  0.0556612594   10   1   4   3
  0.0547747364   10   1   5   2
  0.0713410235   10   1   5   4
  -0.0639099640   10   1   6   1
  -0.0706418059   10   1   6   3
  0.0563321658   10   1   6   5
  0.0772237535   10   1   7   2
  -0.0501897986   10   1   7   4
  -0.0112552696   10   1   7   6
  -0.0425221482   10   1   8   1
  0.0318830260   10   1   8   3
  -0.0087036687   10   1   8   5
  -0.0037671114   10   1   8   7
  -0.1677167920   10   1   9   2
  0.0628905562   10   1   9   4
  -0.0060258888   10   1   9   6
  -0.0022935790   10   1   9   8
  0.1726385434   10   1   10   1
  -0.0007214807   10   2   1   1
  -0.0270299843   10   2   2   2
  -0.0260767112   10   2   3   1
  0.0638017746   10   2   3   3
  0.0640591072   10   2   4   2
  0.1249317903   10   2   4   4
  0.0862855706   10   2   5   1
  0.1227857751   10   2   5   3
  -0.0152854112   10   2   5   5
  -0.1346115650   10   2   6   2
  0.0143777940   10   2   6   4
  -0.0206396257   10   2   6   6
  0.0427351841   10   2   7   1
  0.0046139781   10   2   7   3
  -0.0171333679   10   2   7   5
  0.0155887247   10   2   7   7
  0.0403938475   10   2   8   2
  -0.0035172909   10   2   8   4
  0.0110217510   10   2   8   6
  0.0056822407   10   2   8   8
  -0.1942381635   10   2   9   1
  -0.1130262908   10   2   9   3
  0.0765528323   10   2   9   5
  0.0091037377   10   2   9   7
  0.0056822407   10   2   9   9
  0.2666537507   10   2   10   2
  -0.0323760020   10   3   2   1
  0.0844184964   10   3   3   2
  0.1148812411   10   3   4   1
  0.1577691736   10   3   4   3
  0.1833040460   10   3   5   2
  -0.0094034867   10   3   5   4
  -0.0654742651   10   3   6   1
  -0.0106576806   10   3   6   3
  -0.0179593832   10   3   6   5
  -0.1027099649   10   3   7   2
  0.0428123779   10   3   7   4
  -0.0122322042   10   3   7   6
  0.1468728012   10   3   8   1
  0.0278479196   10   3   8   3
  -0.0341737486   10   3   8   5
  -0.0113270040   10   3   8   7
  -0.1575093043   10   3   9   2
  -0.1124497721   10   3   9   4
  -0.0907881514   10   3   9   6
  -0.0090149203   10   3   9   8
  0.0832321326   10   3   10   1
  0.2442417352   10   3   10   3
  -0.0346026036   10   4   1   1
  0.1130856028   10   4   2   2
  0.1468182975   10   4   3   1
  0.2072955293   10   4   3   3
  0.2386766390   10   4   4   2
  -0.0012041585   10   4   4   4
  0.0896060943   10   4   5   1
  0.0278594827   10   4   5   3
  0.0057614954   10   4   5   5
  0.1186286664   10   4   6   2
  -0.0298372632   10   4   6   4
  0.0501955918   10   4   6   6
  -0.1940397515   10   4   7   1
  -0.1141749524   10   4   7   3
  0.0763647468   10   4   7   5
  0.0497861521   10   4   7   7
  0.1707577120   10   4   8   2
  0.0248363487   10   4   8   4
  0.0695643337   10   4   8   6
  0.0069738801   10   4   8   8
  0.0712752510   10   4   9   1
  -0.1807976181   10   4   9   3
  -0.1148559098   10   4   9   5
  0.1047314856   10   4   9   7
  0.0069738801   10   4   9   9
  0.0378486554   10   4   10   2
  0.2711783274   10   4   10   4
  0.1796129599   10   5   2   1
  0.3001222491   10   5   3   2
  0.1190111618   10   5   4   1
  0.0356126014   10   5   4   3
  -0.1445834936   10   5   5   2
  0.0553426213   10   5   5   4
  0.2551442022   10   5   6   1
  0.1224996423   10   5   6   3
  -0.0335515943   10   5   6   5
  -0.2172482669   10   5   7   2
  -0.1434445589   10   5   7   4
  -0.1155702164   10   5   7   6
  -0.0317299151   10   5   8   1
  0.2181408648   10   5   8   3
  0.0197955486   10   5   8   5
  -0.1117925944   10   5   8   7
  0.0901996945   10   5   9   2
  -0.2142086613   10   5   9   4
  0.1135032780   10   5   9   6
  -0.1082105376   10   5   9   8
  -0.0594152790   10   5   10   1
  0.0339235564   10   5   10   3
  0.3072751188   10   5   10   5
  -0.2136941868   10   6   1   1
  -0.3718399133   10   6   2   2
  -0.1576270689   10   6   3   1
  -0.0399022284   10   6   3   3
  0.1737522107   10   6   4   2
  -0.0722980983   10   6   4   4
  0.3262244080   10   6   5   1
  0.1397661178   10   6   5   3
  -0.0710507941   10   6   5   5
  -0.2816780819   10   6   6   2
  -0.1387541061   10   6   6   4
  -0.0306347998   10   6   6   6
  -0.0444317392   10   6   7   1
  0.2642499239   10   6   7   3
  0.1768133561   10   6   7   5
  -0.1685639495   10   6   7   7
  0.0510852603   10   6   8   2
  -0.2788463900   10   6   8   4
  0.0040089588   10   6   8   6
  -0.1572392395   10   6   8   8
  -0.0068138163   10   6   9   1
  -0.1114532237   10   6   9   3
  0.2537652430   10   6   9   5
  0.1000867307   10   6   9   7
  -0.1572392395   10   6   9   9
  0.0772039160   10   6   10   2
  -0.0312496257   10   6   10   4
  0.3440243429   10   6   10   6
  0.2001548099   10   7   2   1
  -0.2080747007   10   7   3   2
  -0.4050340993   10   7   4   1
  -0.1570672204   10   7   4   3
  -0.3472962431   10   7   5   2
  -0.1496489772   10   7   5   4
  -0.0589183196   10   7   6   1
  0.3292993555   10   7   6   3
  0.1559256288   10   7   6   5
  0.0741437261   10   7   7   2
  -0.3172591713   10   7   7   4
  0.2148269224   10   7   7   6
  -0.0101698883   10   7   8   1
  -0.0732330191   10   7   8   3
  0.3488898173   10   7   8   5
  -0.0263842577   10   7   8   7
  0.0103726789   10   7   9   2
  0.1352721385   10   7   9   4
  0.2908031561   10   7   9   6
  0.1464489687   10   7   9   8
  -0.0076225910   10   7   10   1
  -0.0944072694   10   7   10   3
  0.0265531998   10   7   10   5
  0.4389604812   10   7   10   7
  -0.5568006108   10   8   1   1
  -0.0295816439   10   8   2   2
  0.5249221258   10   8   3   1
  -0.0922925926   10   8   3   3
  0.4575030716   10   8   4   2
  -0.1006423864   10   8   4   4
  -0.0686170706   10   8   5   1
  0.4415756390   10   8   5   3
  -0.0970538138   10   8   5   5
  0.0842886861   10   8   6   2
  -0.4318826474   10   8   6   4
  -0.0813373502   10   8   6   6
  -0.0127389955   10   8   7   1
  -0.0912612215   10   8   7   3
  0.4238418170   10   8   7   5
  0.0047751968   10   8   7   7
  0.0139128864   10   8   8   2
  0.0868724910   10   8   8   4
  0.4701143923   10   8   8   6
  -0.3634097907   10   8   8   8
  -0.0023835609   10   8   9   1
  -0.0100498467   10   8   9   3
  -0.1509315173   10   8   9   5
  0.3997004913   10   8   9   7
  -0.3634097907   10   8   9   9
  0.0091037377   10   8   10   2
  0.1047314856   10   8   10   4
  0.1000867307   10   8   10   6
  0.3997004913   10   8   10   8
  -1.3982508397   10   9   2   1
  -1.0853936131   10   9   3   2
  0.3154173212   10   9   4   1
  -1.0533432475   10   9   4   3
  0.3486038419   10   9   5   2
  -1.0384774732   10   9   5   4
  -0.0276428194   10   9   6   1
  -0.3646932660   10   9   6   3
  1.0275556445   10   9   6   5
  0.0345055073   10   9   7   2
  0.3743957655   10   9   7   4
  1.0184298647   10   9   7   6
  -0.0066867386   10   9   8   1
  -0.0287169830   10   9   8   3
  -0.3689331077   10   9   8   5
  1.3323705424   10   9   8   7
  0.0050406230   10   9   9   2
  0.0050455599   10   9   9   4
  -0.2701201603   10   9   9   6
  0.5198867368   10   9   9   8
  -0.0037671114   10   9   10   1
  -0.0113270040   10   9   10   3
  -0.1117925944   10   9   10   5
  -0.0263842577   10   9   10   7
  1.3323705424   10   9   10   9
  3.4740253445   10   10   1   1
  3.6798821219   10   10   2   2
  0.2053107200   10   10   3   1
  3.4728319738   10   10   3   3
  -0.0028676257   10   10   4   2
  3.4375346353   10   10   4   4
  -0.2084653635   10   10   5   1
  -0.0389352979   10   10   5   3
  3.4179823145   10   10   5   5
  0.2411881976   10   10   6   2
  0.0594011076   10   10   6   4
  3.4038639340   10   10   6   6
  -0.0262835316   10   10   7   1
  -0.2538268148   10   10   7   3
  -0.0731108959   10   10   7   5
  3.5829346386   10   10   7   7
  0.0273797451   10   10   8   2
  0.2453468622   10   10   8   4
  0.1170501899   10   10   8   6
  3.4743655933   10   10   8   8
  -0.0043446959   10   10   9   1
  -0.0132307191   10   10   9   3
  -0.1376455120   10   10   9   5
  0.0047751968   10   10   9   7
  3.4743655933   10   10   9   9
  0.0155887247   10   10   10   2
  0.0497861521   10   10   10   4
  -0.1685639495   10   10   10   6
  0.0047751968   10   10   10   8
  3.5829346386   10   10   10   10
  0.0004906235   11   1   1   1
  0.0146093336   11   1   2   2
  0.0139427888   11   1   3   1
  -0.0437468421   11   1   3   3
  -0.0434423229   11   1   4   2
  -0.0107131218   11   1   4   4
  -0.0531545877   11   1   5   1
  -0.0114599909   11   1   5   3
  -0.0679368344   11   1   5   5
  0.0231327620   11   1   6   2
  0.0664358597   11   1   6   4
  0.0500482600   11   1   6   6
  0.0100269762   11   1   7   1
  -0.0679590502   11   1   7   3
  0.0473517320   11   1   7   5
  -0.0108027630   11   1   7   7
  0.0414896137   11   1   8   2
  -0.0347364642   11   1   8   4
  -0.0083856331   11   1   8   6
  -0.0031980040   11   1   8   8
  -0.0995545359   11   1   9   1
  0.1488413161   11   1   9   3
  -0.0533926470   11   1   9   5
  -0.0054519865   11   1   9   7
  -0.0031980040   11   1   9   9
  -0.0639928807   11   1   10   2
  -0.0734976666   11   1   10   4
  -0.0515821383   11   1   10   6
  -0.0054519865   11   1   10   8
  -0.0108027630   11   1   10   10
  0.1609997875   11   1   11   1
  0.0184106523   11   2   2   1
  -0.0490474407   11   2   3   2
  -0.0657597338   11   2   4   1
  -0.0398600187   11   2   4   3
  -0.0540433513   11   2   5   2
  -0.0970685025   11   2   5   4
  -0.0101209499   11   2   6   1
  0.1094231492   11   2   6   3