 &FCI NORB= 18,NELEC= ,MS0= ,
  ORBSYM=1,2,1,2,1,2,1,2,1,2,1,2,1,2,1,2,1,2,
  ISYM=1,
 /
  -56.8801525897697715095091553   1   1   0   0
  -53.8364274037740528910944704   2   2   0   0
  -2.8467365856171875648783498   3   1   0   0
  -52.4742658454436963211264811   3   3   0   0
  -3.8804985969485841224013711   4   2   0   0
  -51.4890234023037720589854871   4   4   0   0
  -1.0143880408377872193170788   5   1   0   0
  4.4122846718732544601948575   5   3   0   0
  -50.5898591497058589538937667   5   5   0   0
  -1.5064679635837245896823333   6   2   0   0
  4.7344255420845895443449081   6   4   0   0
  -49.7024703086360375436925096   6   6   0   0
  -0.4741281613624705459919539   7   1   0   0
  1.7530633916690032680918421   7   3   0   0
  4.9137064453936600827432812   7   5   0   0
  -48.9059505342930407323365216   7   7   0   0
  -0.6713534926438265992842958   8   2   0   0
  1.7818050280722623757156953   8   4   0   0
  4.8340114789641344117399058   8   6   0   0
  -48.6985978527241556435001257   8   8   0   0
  -0.1644843492736307588586442   9   1   0   0
  0.5814185153150135398902876   9   3   0   0
  1.3933198234223895806138671   9   5   0   0
  3.9118909600634799161866795   9   7   0   0
  -51.4131665759853007102719857   9   9   0   0
  -0.1692138129763590126408701   10   2   0   0
  0.4220826863559232755562789   10   4   0   0
  0.9556791447563670605092057   10   6   0   0
  2.8132166712222232973772407   10   8   0   0
  -50.2365870676963481855636928   10   10   0   0
  -0.1219695731641336489126104   11   1   0   0
  0.4247869535108499405851035   11   3   0   0
  0.9816247457009517063397652   11   5   0   0
  2.6774313917176124633101608   11   7   0   0
  2.2112903250906361662941890   11   9   0   0
  -46.3105696372585953213274479   11   11   0   0
  -0.2860256863836103669029853   12   2   0   0
  0.7390392746877509910774506   12   4   0   0
  1.9977571228167103623007961   12   6   0   0
  1.9167772649844840859856276   12   8   0   0
  3.8002059160656300740299685   12   10   0   0
  -45.0868088551392034446507751   12   12   0   0
  0.1359303846332009513275807   13   1   0   0
  -0.4928362529362158017676165   13   3   0   0
  -1.4007337285821561678744729   13   5   0   0
  -1.2588608540179011541226828   13   7   0   0
  -0.7737959423293039318281217   13   9   0   0
  -4.7008881109521469809919836   13   11   0   0
  -44.4863743867129599607324053   13   13   0   0
  0.2952896022849293977685647   14   2   0   0
  -0.9608419604870941377328109   14   4   0   0
  -0.7541273303215609846716916   14   6   0   0
  -0.7517360005906414954779393   14   8   0   0
  -1.3235897253488158042955547   14   10   0   0
  -4.8058935620767853080792520   14   12   0   0
  -44.1095253161501048566606187   14   14   0   0
  -0.1393887875656585340067295   15   1   0   0
  0.6438217903182646972837233   15   3   0   0
  0.4314988835913844411606988   15   5   0   0
  0.5244000332302045652710376   15   7   0   0
  0.3347032248007081323137868   15   9   0   0
  1.7046070808772300075872863   15   11   0   0
  -4.6603613239327668082978562   15   13   0   0
  -43.9245409578342318468457961   15   15   0   0
  0.4085213369662776816682026   16   2   0   0
  -0.2388330067114370347525210   16   4   0   0
  -0.3188348848990847361761780   16   6   0   0
  -0.3202147767373201281415618   16   8   0   0
  -0.5447006452959707312189153   16   10   0   0
  -1.6956146855529259376282880   16   12   0   0
  4.3673623719035488122131028   16   14   0   0
  -44.0363650153577381729519402   16   16   0   0
  0.2179918563071102932671153   17   1   0   0
  -0.1287238242233370577594087   17   3   0   0
  -0.1719449599186697597019702   17   5   0   0
  -0.2015325188976084813674561   17   7   0   0
  -0.1314960254814380169463561   17   9   0   0
  -0.6363769205648848181766652   17   11   0   0
  1.4726588125847781540755932   17   13   0   0
  -3.8574203786808860527912657   17   15   0   0
  -44.7583987164675676240221947   17   17   0   0
  -0.0646948117273924427905740   18   2   0   0
  0.0723063719029333196175457   18   4   0   0
  0.0883776934414590709110371   18   6   0   0
  0.0906084251147213359800503   18   8   0   0
  0.1530356814475904436712028   18   10   0   0
  0.4562008255022350633467454   18   12   0   0
  -1.0003065689466434928789340   18   14   0   0
  -2.8384191288358961990923035   18   16   0   0
  -47.4114731716896073976386106   18   18   0   0
  4.2341167702   1   1   1   1
  1.5386130058   2   1   2   1
  3.4206410485   2   2   1   1
  3.7063973800   2   2   2   2
  0.8116379512   3   1   1   1
  -0.2848827081   3   1   2   2
  1.0938181482   3   1   3   1
  -0.9905797635   3   2   2   1
  1.2544370119   3   2   3   2
  3.3946977064   3   3   1   1
  3.2851211085   3   3   2   2
  0.1092685745   3   3   3   1
  3.4809196109   3   3   3   3
  0.5486193632   4   1   2   1
  0.2599397707   4   1   3   2
  0.8052627055   4   1   4   1
  0.8332939492   4   2   1   1
  0.1372128097   4   2   2   2
  0.6945743103   4   2   3   1
  -0.0864085853   4   2   3   3
  0.9138332506   4   2   4   2
  0.9777726301   4   3   2   1
  -0.9426313548   4   3   3   2
  0.0368775158   4   3   4   1
  1.1104473086   4   3   4   3
  3.3779465753   4   4   1   1
  3.2666990432   4   4   2   2
  0.1110045186   4   4   3   1
  3.2301714748   4   4   3   3
  0.1468052239   4   4   4   2
  3.3583842584   4   4   4   4
  0.0180603399   5   1   1   1
  0.4195761326   5   1   2   2
  -0.4003263037   5   1   3   1
  -0.1934674666   5   1   3   3
  0.2134712731   5   1   4   2
  0.0347795089   5   1   4   4
  0.6092100298   5   1   5   1
  0.5593066161   5   2   2   1
  -0.0565110707   5   2   3   2
  0.5017205397   5   2   4   1
  -0.1271756662   5   2   4   3
  0.6796736995   5   2   5   2
  -0.8434631412   5   3   1   1
  -0.1558669358   5   3   2   2
  -0.6860442488   5   3   3   1
  -0.1640726005   5   3   3   3
  -0.6743643448   5   3   4   2
  -0.0182249173   5   3   4   4
  0.0142211523   5   3   5   1
  0.8141290838   5   3   5   3
  0.9678956436   5   4   2   1
  -0.9331954374   5   4   3   2
  0.0365950854   5   4   4   1
  0.9166609076   5   4   4   3
  0.0551392133   5   4   5   2
  1.0215816156   5   4   5   4
  3.3604067170   5   5   1   1
  3.2508373429   5   5   2   2
  0.1093403067   5   5   3   1
  3.2138896900   5   5   3   3
  0.1456629232   5   5   4   2
  3.1858348442   5   5   4   4
  0.0355674908   5   5   5   1
  -0.1725219382   5   5   5   3
  3.3382045517   5   5   5   5
  0.0059090616   6   1   2   1
  -0.3128063979   6   1   3   2
  -0.3047238185   6   1   4   1
  -0.1609097917   6   1   4   3
  0.1700645135   6   1   5   2
  0.0171302039   6   1   5   4
  0.4684453473   6   1   6   1
  0.0234655800   6   2   1   1
  0.4306946898   6   2   2   2
  -0.4061045048   6   2   3   1
  0.0588817336   6   2   3   3
  -0.0326511068   6   2   4   2
  -0.0927874287   6   2   4   4
  0.3722274521   6   2   5   1
  -0.1197907123   6   2   5   3
  0.0605886703   6   2   5   5
  0.5166265689   6   2   6   2
  -0.5659398713   6   3   2   1
  0.0713023261   6   3   3   2
  -0.4934623067   6   3   4   1
  -0.0716144746   6   3   4   3
  -0.4892810957   6   3   5   2
  0.0449572372   6   3   5   4
  0.0074955031   6   3   6   1
  0.5982292914   6   3   6   3
  -0.8500534194   6   4   1   1
  -0.1721757431   6   4   2   2
  -0.6763453022   6   4   3   1
  -0.1790189204   6   4   3   3
  -0.6659931718   6   4   4   2
  -0.1897325387   6   4   4   4
  0.0131349835   6   4   5   1
  0.6501255809   6   4   5   3
  -0.0175620064   6   4   5   5
  0.0318926091   6   4   6   2
  0.8143058352   6   4   6   4
  0.9567365352   6   5   2   1
  -0.9238024072   6   5   3   2
  0.0348210950   6   5   4   1
  0.8989107963   6   5   4   3
  0.0618559603   6   5   5   2
  0.9589169898   6   5   5   4
  0.0258377118   6   5   6   1
  -0.0032081499   6   5   6   3
  1.0153592903   6   5   6   5
  3.3369582828   6   6   1   1
  3.2310564672   6   6   2   2
  0.1056788930   6   6   3   1
  3.1846212766   6   6   3   3
  0.1514719166   6   6   4   2
  3.2476150788   6   6   4   4
  0.0449313346   6   6   5   1
  -0.0869694633   6   6   5   3
  3.1949750364   6   6   5   5
  -0.0224814632   6   6   6   2
  -0.1381486575   6   6   6   4
  3.2670662977   6   6   6   6
  0.0065082444   7   1   1   1
  0.0060604361   7   1   2   2
  0.0003729744   7   1   3   1
  0.2476554929   7   1   3   3
  -0.2404089730   7   1   4   2
  -0.1222972197   7   1   4   4
  -0.2376026803   7   1   5   1
  -0.1298125287   7   1   5   3
  0.0237667042   7   1   5   5
  0.1341267899   7   1   6   2
  0.0164660016   7   1   6   4
  -0.0702115415   7   1   6   6
  0.3631910990   7   1   7   1
  0.0063714194   7   2   2   1
  -0.3167739566   7   2   3   2
  -0.3084291577   7   2   4   1
  0.0401533201   7   2   4   3
  -0.0289077650   7   2   5   2
  -0.0814166243   7   2   5   4
  0.2780706567   7   2   6   1
  -0.0938116248   7   2   6   3
  -0.0391715424   7   2   6   5
  0.3900437471   7   2   7   2
  -0.0229056807   7   3   1   1
  -0.4348041453   7   3   2   2
  0.4107873326   7   3   3   1
  -0.0738623291   7   3   3   3
  0.0482460471   7   3   4   2
  -0.0788305625   7   3   4   4
  -0.3612536229   7   3   5   1
  -0.0515057134   7   3   5   3
  0.0991312407   7   3   5   5
  -0.3531646011   7   3   6   2
  0.1298723199   7   3   6   4
  -0.0274012462   7   3   6   6
  0.0118258310   7   3   7   1
  0.5281960311   7   3   7   3
  -0.5705864117   7   4   2   1
  0.0893315858   7   4   3   2
  -0.4801887899   7   4   4   1
  -0.0954224022   7   4   4   3
  -0.4703117099   7   4   5   2
  -0.0196819291   7   4   5   4
  0.0133382271   7   4   6   1
  0.5420244491   7   4   6   3
  0.0460351705   7   4   6   5
  -0.0582200209   7   4   7   2
  0.5951863750   7   4   7   4
  -0.8547417096   7   5   1   1
  -0.1922607309   7   5   2   2
  -0.6609988081   7   5   3   1
  -0.2061990487   7   5   3   3
  -0.6436878485   7   5   4   2
  -0.1212952494   7   5   4   4
  0.0199249783   7   5   5   1
  0.7238845507   7   5   5   3
  -0.1591117328   7   5   5   5
  -0.0583577615   7   5   6   2
  0.6771956843   7   5   6   4
  -0.0630830686   7   5   6   6
  -0.0817631257   7   5   7   1
  0.0056985171   7   5   7   3
  0.7585651146   7   5   7   5
  0.9398506372   7   6   2   1
  -0.8982870431   7   6   3   2
  0.0433114791   7   6   4   1
  0.9930903295   7   6   4   3
  -0.0496543634   7   6   5   2
  0.9300323954   7   6   5   4
  -0.0941938588   7   6   6   1
  -0.0178585455   7   6   6   3
  0.9206631012   7   6   6   5
  -0.0252302780   7   6   7   2
  -0.0321255961   7   6   7   4
  1.0097481186   7   6   7   6
  3.3017438046   7   7   1   1
  3.1872071737   7   7   2   2
  0.1142538576   7   7   3   1
  3.3030198786   7   7   3   3
  -0.0021224971   7   7   4   2
  3.2060892859   7   7   4   4
  -0.1165547308   7   7   5   1
  -0.0944469431   7   7   5   3
  3.1850866922   7   7   5   5
  -0.0185591492   7   7   6   2
  -0.1140974994   7   7   6   4
  3.1727041559   7   7   6   6
  0.1008344914   7   7   7   1
  -0.0010133591   7   7   7   3
  -0.1236553740   7   7   7   5
  3.2667877339   7   7   7   7
  0.0021719747   8   1   2   1
  0.0014740271   8   1   3   2
  0.0034434162   8   1   4   1
  0.1931985425   8   1   4   3
  -0.1896986950   8   1   5   2
  -0.0913072136   8   1   5   4
  -0.1888862990   8   1   6   1
  -0.0958300457   8   1   6   3
  -0.0722918061   8   1   6   5
  0.0996103064   8   1   7   2
  -0.0796970148   8   1   7   4
  0.0745141347   8   1   7   6
  0.2782806815   8   1   8   1
  0.0079988730   8   2   1   1
  0.0049700493   8   2   2   2
  0.0029356443   8   2   3   1
  0.2482254032   8   2   3   3
  -0.2396602608   8   2   4   2
  0.0532525450   8   2   4   4
  -0.2398234015   8   2   5   1
  0.0435321280   8   2   5   3
  -0.1406671051   8   2   5   5
  -0.0390904735   8   2   6   2
  -0.1518379129   8   2   6   4
  -0.0180060932   8   2   6   6
  0.1996912090   8   2   7   1
  -0.1619370896   8   2   7   3
  -0.0282580787   8   2   7   5
  0.1196980433   8   2   7   7
  0.3933893726   8   2   8   2
  -0.0026168365   8   3   2   1
  0.3162780831   8   3   3   2
  0.3117530266   8   3   4   1
  -0.0632754702   8   3   4   3
  0.0558009905   8   3   5   2
  0.0272889934   8   3   5   4
  -0.2549514606   8   3   6   1
  0.0390386608   8   3   6   3
  0.0861593415   8   3   6   5
  -0.3465750389   8   3   7   2
  0.1004009106   8   3   7   4
  0.0131119686   8   3   7   6
  -0.0909413294   8   3   8   1
  0.3904293958   8   3   8   3
  -0.0173163978   8   4   1   1
  -0.4325490516   8   4   2   2
  0.4141356966   8   4   3   1
  -0.1011624254   8   4   3   3
  0.0810252178   8   4   4   2
  0.0047817139   8   4   4   4
  -0.3323411558   8   4   5   1
  0.0269423729   8   4   5   3
  -0.0432569602   8   4   5   5
  -0.4366544304   8   4   6   2
  -0.0187059366   8   4   6   4
  0.0508428323   8   4   6   6
  -0.1009082066   8   4   7   1
  0.3817003056   8   4   7   3
  0.0798828022   8   4   7   5
  -0.0088486774   8   4   7   7
  -0.0364260626   8   4   8   2
  0.4648925975   8   4   8   4
  -0.5728429417   8   5   2   1
  0.1269724502   8   5   3   2
  -0.4451314307   8   5   4   1
  0.0024383838   8   5   4   3
  -0.5712400088   8   5   5   2
  -0.0578968214   8   5   5   4
  -0.1223143847   8   5   6   1
  0.5042162085   8   5   6   3
  -0.0574495932   8   5   6   5
  -0.0470437984   8   5   7   2
  0.4950429384   8   5   7   4
  0.0504083029   8   5   7   6
  0.0790699623   8   5   8   1
  0.0304760894   8   5   8   3
  0.5853514988   8   5   8   5
  -0.8561771323   8   6   1   1
  -0.2348432823   8   6   2   2
  -0.6200117178   8   6   3   1
  -0.0733968171   8   6   3   3
  -0.7781578944   8   6   4   2
  -0.1586912821   8   6   4   4
  -0.1547576412   8   6   5   1
  0.6872805123   8   6   5   3
  -0.1624201379   8   6   5   5
  -0.0575732468   8   6   6   2
  0.6750260337   8   6   6   4
  -0.1528737591   8   6   6   6
  0.0990431284   8   6   7   1
  0.0380238006   8   6   7   3
  0.6704249315   8   6   7   5
  -0.0229091217   8   6   7   7
  0.1158547277   8   6   8   2
  0.0241773900   8   6   8   4
  0.7766310263   8   6   8   6
  0.8955428748   8   7   2   1
  -1.0931916814   8   7   3   2
  -0.1949990254   8   7   4   1
  0.9577117984   8   7   4   3
  -0.0550905234   8   7   5   2
  0.9385581754   8   7   5   4
  0.1407373192   8   7   6   1
  0.0303692827   8   7   6   3
  0.9314762264   8   7   6   5
  0.1631749100   8   7   7   2
  0.0148424987   8   7   7   4
  0.9304518013   8   7   7   6
  0.0169480743   8   7   8   1
  -0.1731581371   8   7   8   3
  0.0025577896   8   7   8   5
  1.0726464549   8   7   8   7
  3.2338493122   8   8   1   1
  3.4662536610   8   8   2   2
  -0.2319073385   8   8   3   1
  3.2467321907   8   8   3   3
  -0.0114665340   8   8   4   2
  3.2134759599   8   8   4   4
  0.2205572497   8   8   5   1
  -0.0224729590   8   8   5   3
  3.1960253189   8   8   5   5
  0.2521859138   8   8   6   2
  -0.0409273977   8   8   6   4
  3.1828025700   8   8   6   6
  0.0274195558   8   8   7   1
  -0.2663212633   8   8   7   3
  -0.0553485393   8   8   7   5
  3.1720685751   8   8   7   7
  0.0348275435   8   8   8   2
  -0.2713130334   8   8   8   4
  -0.0661213684   8   8   8   6
  3.3667074147   8   8   8   8
  0.0017771332   9   1   1   1
  0.0016333742   9   1   2   2
  0.0001341851   9   1   3   1
  -0.0034879561   9   1   3   3
  0.0051444202   9   1   4   2
  0.1609136706   9   1   4   4
  0.0046871233   9   1   5   1
  0.1586323391   9   1   5   3
  -0.1661498909   9   1   5   5
  -0.1569383717   9   1   6   2
  -0.1700489132   9   1   6   4
  0.0627157637   9   1   6   6
  -0.1562188142   9   1   7   1
  -0.1768144937   9   1   7   3
  0.0633574406   9   1   7   5
  0.0112686465   9   1   7   7
  0.1871887271   9   1   8   2
  0.0711341321   9   1   8   4
  0.0089014080   9   1   8   6
  0.0070978302   9   1   8   8
  0.3354727944   9   1   9   1
  0.0016899086   9   2   2   1
  0.0049288521   9   2   3   2
  0.0063999434   9   2   4   1
  0.1935793593   9   2   4   3
  -0.1908943566   9   2   5   2
  -0.0507165534   9   2   5   4
  -0.1936129723   9   2   6   1
  -0.0566133942   9   2   6   3
  -0.1063077818   9   2   6   5
  0.0620446653   9   2   7   2
  -0.1116702527   9   2   7   4
  0.0859422738   9   2   7   6
  0.2564023594   9   2   8   1
  -0.1165934065   9   2   8   3
  0.0910095676   9   2   8   5
  0.0176436576   9   2   8   7
  0.2834377904   9   2   9   2
  -0.0058122680   9   3   1   1
  0.0011979837   9   3   2   2
  -0.0069133278   9   3   3   1
  -0.2487235115   9   3   3   3
  0.2423747539   9   3   4   2
  0.0519921283   9   3   4   4
  0.2465597294   9   3   5   1
  0.0594975064   9   3   5   3
  -0.0095245125   9   3   5   5
  -0.0599606662   9   3   6   2
  -0.0018851660   9   3   6   4
  0.0929427007   9   3   6   6
  -0.3055653879   9   3   7   1
  0.0002530705   9   3   7   3
  0.1021457342   9   3   7   5
  -0.1212301718   9   3   7   7
  -0.2319652675   9   3   8   2
  0.1104346307   9   3   8   4
  -0.1199017916   9   3   8   6
  -0.0287883760   9   3   8   8
  0.0860357238   9   3   9   1
  0.3207839630   9   3   9   3
  0.0040719839   9   4   2   1
  0.3176694620   9   4   3   2
  0.3198088482   9   4   4   1
  0.0625619930   9   4   4   3
  -0.0632521699   9   4   5   2
  -0.0114671192   9   4   5   4
  -0.3815771913   9   4   6   1
  -0.0095297678   9   4   6   3
  -0.0153752104   9   4   6   5
  -0.2987650977   9   4   7   2
  -0.0090763382   9   4   7   4
  0.0985793537   9   4   7   6
  0.0926918499   9   4   8   1
  0.2865660915   9   4   8   3
  0.1131353350   9   4   8   5
  -0.1697528580   9   4   8   7
  0.1060689792   9   4   9   2
  0.3846838603   9   4   9   4
  -0.0063940357   9   5   1   1
  -0.4308535439   9   5   2   2
  0.4233286437   9   5   3   1
  0.0637907211   9   5   3   3
  -0.0728583361   9   5   4   2
  -0.0328122791   9   5   4   4
  -0.4945635092   9   5   5   1
  -0.0227510295   9   5   5   3
  -0.0378920200   9   5   5   5
  -0.3916483502   9   5   6   2
  -0.0253709455   9   5   6   4
  -0.0360344421   9   5   6   6
  0.1099953942   9   5   7   1
  0.3795787221   9   5   7   3
  -0.0193435076   9   5   7   5
  0.0982868186   9   5   7   7
  0.1256831501   9   5   8   2
  0.3691371884   9   5   8   4
  0.1232428680   9   5   8   6
  -0.2584183234   9   5   8   8
  0.0063294136   9   5   9   1
  -0.1337341769   9   5   9   3
  0.4836396363   9   5   9   5
  -0.5810200403   9   6   2   1
  -0.0849204548   9   6   3   2
  -0.6642970877   9   6   4   1
  -0.0483678470   9   6   4   3
  -0.5255498537   9   6   5   2
  -0.0557004287   9   6   5   4
  0.1436533494   9   6   6   1
  0.5111266681   9   6   6   3
  -0.0525984130   9   6   6   5
  0.1611491379   9   6   7   2
  0.5020914962   9   6   7   4
  -0.0425443771   9   6   7   6
  0.0107965279   9   6   8   1
  -0.1723752272   9   6   8   3
  0.4910731792   9   6   8   5
  0.1368076618   9   6   8   7
  0.0111835513   9   6   9   2
  -0.1770659906   9   6   9   4
  0.6368255898   9   6   9   6
  -0.8599354986   9   7   1   1
  0.0736835965   9   7   2   2
  -0.9316008228   9   7   3   1
  -0.1242392030   9   7   3   3
  -0.7291810325   9   7   4   2
  -0.1379082714   9   7   4   4
  0.2056404879   9   7   5   1
  0.7093361940   9   7   5   3
  -0.1377553469   9   7   5   5
  0.2273607807   9   7   6   2
  0.6993116779   9   7   6   4
  -0.1296936666   9   7   6   6
  0.0167115950   9   7   7   1
  -0.2395097128   9   7   7   3
  0.6903884830   9   7   7   5
  -0.1121426450   9   7   7   7
  0.0209106569   9   7   8   2
  -0.2486177094   9   7   8   4
  0.6792243776   9   7   8   6
  0.1381927789   9   7   8   8
  0.0040444378   9   7   9   1
  -0.0174444299   9   7   9   3
  -0.2488492645   9   7   9   5
  0.8849488478   9   7   9   7
  1.3675038198   9   8   2   1
  -1.0417755693   9   8   3   2
  0.3275064002   9   8   4   1
  1.0115324980   9   8   4   3
  0.3582872756   9   8   5   2
  0.9980737377   9   8   5   4
  0.0270016918   9   8   6   1
  -0.3724829771   9   8   6   3
  0.9885248410   9   8   6   5
  0.0353711913   9   8   7   2
  -0.3821848738   9   8   7   4
  0.9795628251   9   8   7   6
  0.0085002339   9   8   8   1
  -0.0358247525   9   8   8   3
  -0.3879559097   9   8   8   5
  0.9710958617   9   8   8   7
  0.0088771922   9   8   9   2
  -0.0273491111   9   8   9   4
  -0.3798015770   9   8   9   6
  1.2999733766   9   8   9   8
  3.9775462234   9   9   1   1
  3.3994933050   9   9   2   2
  0.5768948737   9   9   3   1
  3.3534847787   9   9   3   3
  0.6200305376   9   9   4   2
  3.3321745696   9   9   4   4
  0.0402237933   9   9   5   1
  -0.6368728625   9   9   5   3
  3.3145859232   9   9   5   5
  0.0527931475   9   9   6   2
  -0.6469805338   9   9   6   4
  3.2944120084   9   9   6   6
  0.0128460832   9   9   7   1
  -0.0561621738   9   9   7   3
  -0.6542045485   9   9   7   5
  3.2684825475   9   9   7   7
  0.0166333443   9   9   8   2
  -0.0527810276   9   9   8   4
  -0.6562919965   9   9   8   6
  3.2393768700   9   9   8   8
  0.0036114362   9   9   9   1
  -0.0135837631   9   9   9   3
  -0.0389002825   9   9   9   5
  -0.6382259630   9   9   9   7
  3.7978821852   9   9   9   9
  -0.0002281827   10   1   2   1
  0.0022037404   10   1   3   2
  0.0019830496   10   1   4   1
  -0.0252809092   10   1   4   3
  0.0242963345   10   1   5   2
  0.1103706896   10   1   5   4
  0.0207232954   10   1   6   1
  0.1065083266   10   1   6   3
  -0.0629856001   10   1   6   5
  -0.0988161997   10   1   7   2
  -0.0587634493   10   1   7   4
  0.0088815575   10   1   7   6
  -0.0943240139   10   1   8   1
  -0.0472048643   10   1   8   3
  0.0081752596   10   1   8   5
  0.0031729801   10   1   8   7
  0.0194000038   10   1   9   2
  0.0062758166   10   1   9   4
  0.0021255983   10   1   9   6
  0.0014627192   10   1   9   8
  0.2726809267   10   1   10   1
  0.0002747174   10   2   1   1
  -0.0024466405   10   2   2   2
  0.0027143563   10   2   3   1
  -0.0343175158   10   2   3   3
  0.0342494969   10   2   4   2
  0.1277906680   10   2   4   4
  0.0304758286   10   2   5   1
  0.1264496718   10   2   5   3
  -0.0065727035   10   2   5   5
  -0.1254947439   10   2   6   2
  -0.0084540243   10   2   6   4
  -0.0285884907   10   2   6   6
  -0.1431453004   10   2   7   1
  -0.0110911506   10   2   7   3
  -0.0258325631   10   2   7   5
  0.0113099351   10   2   7   7
  0.0004506890   10   2   8   2
  -0.0133583946   10   2   8   4
  0.0097606426   10   2   8   6
  0.0054053139   10   2   8   8
  0.1106030143   10   2   9   1
  0.0197753845   10   2   9   3
  0.0065197434   10   2   9   5
  0.0035297539   10   2   9   7
  0.0023221756   10   2   9   9
  0.2192513817   10   2   10   2
  0.0028678670   10   3   2   1
  -0.0435949658   10   3   3   2
  -0.0400918758   10   3   4   1
  -0.1612620821   10   3   4   3
  0.1624494822   10   3   5   2
  0.0136251725   10   3   5   4
  0.1948684104   10   3   6   1
  0.0126636681   10   3   6   3
  0.0006625126   10   3   6   5
  0.0158789202   10   3   7   2
  0.0021607899   10   3   7   4
  -0.0024242100   10   3   7   6
  -0.1596059757   10   3   8   1
  -0.0156060841   10   3   8   3
  -0.0142710147   10   3   8   5
  -0.0100832833   10   3   8   7
  -0.1339339481   10   3   9   2
  -0.0538161537   10   3   9   4
  -0.0056185831   10   3   9   6
  -0.0046559587   10   3   9   8
  0.0719448290   10   3   10   1
  0.2365795455   10   3   10   3
  0.0019839823   10   4   1   1
  0.0524941145   10   4   2   2
  -0.0502332139   10   4   3   1
  -0.2053879743   10   4   3   3
  0.2067341180   10   4   4   2
  0.0138893701   10   4   4   4
  0.2523024199   10   4   5   1
  0.0127213236   10   4   5   3
  -0.0038155063   10   4   5   5
  0.0297262330   10   4   6   2
  -0.0046733490   10   4   6   4
  0.0028876708   10   4   6   6
  -0.2121476514   10   4   7   1
  -0.0421786117   10   4   7   3
  0.0040970916   10   4   7   5
  -0.0381082720   10   4   7   7
  -0.1812587786   10   4   8   2
  -0.0209853979   10   4   8   4
  -0.0463712542   10   4   8   6
  -0.0083943479   10   4   8   8
  0.0233501595   10   4   9   1
  0.1758141053   10   4   9   3
  -0.0926541301   10   4   9   5
  -0.0035276451   10   4   9   7
  -0.0047455150   10   4   9   9
  0.0834509538   10   4   10   2
  0.2641762508   10   4   10   4
  0.0598541540   10   5   2   1
  0.2610875831   10   5   3   2
  0.3181969515   10   5   4   1
  0.0136670701   10   5   4   3
  0.0411398667   10   5   5   2
  -0.0096740545   10   5   5   4
  -0.2711812865   10   5   6   1
  -0.0614172590   10   5   6   3
  -0.0110530640   10   5   6   5
  -0.2394496325   10   5   7   2
  -0.0568574209   10   5   7   4
  0.0090494469   10   5   7   6
  0.0308407370   10   5   8   1
  0.2255039877   10   5   8   3
  -0.0240026361   10   5   8   5
  -0.0892791008   10   5   8   7
  0.0348303632   10   5   9   2
  0.2293371824   10   5   9   4
  -0.1405972054   10   5   9   6
  0.0011182410   10   5   9   8
  0.0041307988   10   5   10   1
  -0.0964023872   10   5   10   3
  0.2991348606   10   5   10   5
  0.0639443092   10   6   1   1
  -0.3288252306   10   6   2   2
  0.3913798482   10   6   3   1
  0.0142718664   10   6   3   3
  0.0468285358   10   6   4   2
  -0.0174944450   10   6   4   4
  -0.3410967298   10   6   5   1
  -0.0767483000   10   6   5   3
  -0.0214309912   10   6   5   5
  -0.3039165820   10   6   6   2
  -0.0773774295   10   6   6   4
  -0.0181513728   10   6   6   6
  0.0382677121   10   6   7   1
  0.2919859080   10   6   7   3
  -0.0685275607   10   6   7   5
  0.0164068951   10   6   7   7
  0.0476996179   10   6   8   2
  0.2811185799   10   6   8   4
  -0.0229162667   10   6   8   6
  -0.1519823570   10   6   8   8
  0.0058194916   10   6   9   1
  -0.0476671146   10   6   9   3
  0.2953042380   10   6   9   5
  -0.2011969945   10   6   9   7
  0.0108925542   10   6   9   9
  0.0062874412   10   6   10   2
  -0.1122974701   10   6   10   4
  0.3366817801   10   6   10   6
  -0.4609144114   10   7   2   1
  0.0379314852   10   7   3   2
  -0.4208584623   10   7   4   1
  -0.0816817044   10   7   4   3
  -0.3724765015   10   7   5   2
  -0.0869525298   10   7   5   4
  0.0496749453   10   7   6   1
  0.3602701481   10   7   6   3
  -0.0837826137   10   7   6   5
  0.0616235171   10   7   7   2
  0.3516329004   10   7   7   4
  -0.0721113747   10   7   7   6
  0.0093101223   10   7   8   1
  -0.0674119341   10   7   8   3
  0.3427103629   10   7   8   5
  -0.0102768043   10   7   8   7
  0.0101997378   10   7   9   2
  -0.0644914513   10   7   9   4
  0.3716371263   10   7   9   6
  -0.2733997734   10   7   9   8
  0.0018376283   10   7   10   1
  -0.0079865342   10   7   10   3
  -0.1301088804   10   7   10   5
  0.3645997292   10   7   10   7
  -0.5086948272   10   8   1   1
  -0.0146305857   10   8   2   2
  -0.4925060429   10   8   3   1
  -0.0781655615   10   8   3   3
  -0.4259212080   10   8   4   2
  -0.0882840149   10   8   4   4
  0.0674687882   10   8   5   1
  0.4112497750   10   8   5   3
  -0.0886072438   10   8   5   5
  0.0821679608   10   8   6   2
  0.4034351012   10   8   6   4
  -0.0829620368   10   8   6   6
  0.0129085471   10   8   7   1
  -0.0892395927   10   8   7   3
  0.3965208747   10   8   7   5
  -0.0672988963   10   8   7   7
  0.0167850137   10   8   8   2
  -0.0927563375   10   8   8   4
  0.3907945940   10   8   8   6
  0.0176467234   10   8   8   8
  0.0032710599   10   8   9   1
  -0.0147957496   10   8   9   3
  -0.0860142875   10   8   9   5
  0.4417656259   10   8   9   7
  -0.3451303064   10   8   9   9
  0.0030057091   10   8   10   2
  -0.0089512052   10   8   10   4
  -0.1445852597   10   8   10   6
  0.3567177070   10   8   10   8
  0.5146197377   10   9   2   1
  -0.4303123220   10   9   3   2
  0.0846741028   10   9   4   1
  0.4141729409   10   9   4   3
  0.1006619069   10   9   5   2
  0.4070702624   10   9   5   4
  0.0149941091   10   9   6   1
  -0.1073317512   10   9   6   3
  0.4020704463   10   9   6   5
  0.0199723976   10   9   7   2
  -0.1110984475   10   9   7   4
  0.3975614314   10   9   7   6
  0.0047425041   10   9   8   1
  -0.0209089165   10   9   8   3
  -0.1119365973   10   9   8   5
  0.3966069869   10   9   8   7
  0.0050449957   10   9   9   2
  -0.0169953070   10   9   9   4
  -0.1017564422   10   9   9   6
  0.4709803898   10   9   9   8
  0.0008685464   10   9   10   1
  -0.0030528953   10   9   10   3
  -0.0074659760   10   9   10   5
  -0.1402310598   10   9   10   7
  0.3525297747   10   9   10   9
  3.9775462234   10   10   1   1
  3.3994933050   10   10   2   2
  0.5768948737   10   10   3   1
  3.3534847787   10   10   3   3
  0.6200305376   10   10   4   2
  3.3321745696   10   10   4   4
  0.0402237933   10   10   5   1
  -0.6368728625   10   10   5   3
  3.3145859232   10   10   5   5
  0.0527931475   10   10   6   2
  -0.6469805338   10   10   6   4
  3.2944120084   10   10   6   6
  0.0128460832   10   10   7   1
  -0.0561621738   10   10   7   3
  -0.6542045485   10   10   7   5
  3.2684825475   10   10   7   7
  0.0166333443   10   10   8   2
  -0.0527810276   10   10   8   4
  -0.6562919965   10   10   8   6
  3.2393768700   10   10   8   8
  0.0036114362   10   10   9   1
  -0.0135837631   10   10   9   3
  -0.0389002825   10   10   9   5
  -0.6382259630   10   10   9   7
  3.7978821852   10   10   9   9
  0.0023221756   10   10   10   2
  -0.0047455150   10   10   10   4
  0.0108925542   10   10   10   6
  -0.3451303064   10   10   10   8
  3.7978821852   10   10   10   10
  0.0001989132   11   1   1   1
  -0.0016378759   11   1   2   2
  0.0018323342   11   1   3   1
  -0.0194427315   11   1   3   3
  0.0194087776   11   1   4   2
  0.0510947793   11   1   4   4
  0.0168630033   11   1   5   1
  0.0500395359   11   1   5   3
  0.0613068407   11   1   5   5
  -0.0489407645   11   1   6   2
  0.0603907504   11   1   6   4
  -0.0545862665   11   1   6   6
  -0.0563410373   11   1   7   1
  0.0597219195   11   1   7   3