 &FCI NORB= 10,NELEC= ,MS0= ,
  ORBSYM=1,2,3,1,4,2,3,1,4,3,
  ISYM=1,
 /
  -53.1606163198421839410912071   1   1   0   0
  -47.2583628257587236021208810   2   2   0   0
  -49.8721512792653172141399409   3   3   0   0
  -4.0135985656739636695533591   4   1   0   0
  -48.7056335025438897901040036   4   4   0   0
  -46.2808870171568074169954343   5   5   0   0
  -1.4330053914581237783920642   6   2   0   0
  -43.3146482970178254845450283   6   6   0   0
  -3.1603373925503879249276906   7   3   0   0
  -43.9135813717759404539719981   7   7   0   0
  -1.4490382605022462669808192   8   1   0   0
  -2.7429663760177547260354913   8   4   0   0
  -43.6349184251946908830177563   8   8   0   0
  1.4920138525559436537548663   9   5   0   0
  -39.4921241056197658281234908   9   9   0   0
  -1.3832126281679246737610356   10   3   0   0
  -3.7898997379397840745696158   10   7   0   0
  -42.1154355965394699978787685   10   10   0   0
  6.2445340287   1   1   1   1
  1.1245017301   2   1   2   1
  5.3862979942   2   2   1   1
  5.5901471087   2   2   2   2
  1.1400274056   3   1   3   1
  0.4425364197   3   2   3   2
  6.0961155068   3   3   1   1
  5.3287606740   3   3   2   2
  6.0478209394   3   3   3   3
  0.7770864858   4   1   1   1
  -0.1581002438   4   1   2   2
  0.6707159084   4   1   3   3
  0.8309675899   4   1   4   1
  -1.2174837889   4   2   2   1
  1.4589930664   4   2   4   2
  0.1497593174   4   3   3   1
  0.1850522461   4   3   4   3
  5.9420994667   4   4   1   1
  5.5675754944   4   4   2   2
  5.7261504887   4   4   3   3
  0.3822451503   4   4   4   1
  5.9884341252   4   4   4   4
  -0.4728786562   5   1   3   2
  0.5111853449   5   1   5   1
  -0.9087655429   5   2   3   1
  0.0355791702   5   2   4   3
  0.8696117378   5   2   5   2
  -1.1481848718   5   3   2   1
  1.0997782937   5   3   4   2
  1.3182665578   5   3   5   3
  0.2077568730   5   4   3   2
  -0.2034559794   5   4   5   1
  0.1559881466   5   4   5   4
  5.7149659826   5   5   1   1
  5.3798404615   5   5   2   2
  5.7429198172   5   5   3   3
  0.2789272751   5   5   4   1
  5.4955441436   5   5   4   4
  5.6306134236   5   5   5   5
  0.1218003725   6   1   2   1
  0.0646258094   6   1   4   2
  -0.3243625050   6   1   5   3
  0.2873451348   6   1   6   1
  0.3379064471   6   2   1   1
  -0.2162181121   6   2   2   2
  0.4258006547   6   2   3   3
  0.4493118327   6   2   4   1
  -0.0740560648   6   2   4   4
  0.2578218861   6   2   5   5
  0.4873646879   6   2   6   2
  0.3597786614   6   3   3   2
  -0.4166962896   6   3   5   1
  0.0672589807   6   3   5   4
  0.4692526174   6   3   6   3
  0.7495673810   6   4   2   1
  -0.9025592460   6   4   4   2
  -0.6727210895   6   4   5   3
  -0.0457902813   6   4   6   1
  0.5584580404   6   4   6   4
  -0.8702021015   6   5   3   1
  -0.1430895990   6   5   4   3
  0.6667133612   6   5   5   2
  0.8419143089   6   5   6   5
  5.7149659826   6   6   1   1
  5.3798404615   6   6   2   2
  5.7429198172   6   6   3   3
  0.2789272751   6   6   4   1
  5.4955441436   6   6   4   4
  5.6306134236   6   6   5   5
  0.2578218861   6   6   6   2
  5.6306134236   6   6   6   6
  0.2304730628   7   1   3   1
  0.2464737973   7   1   4   3
  0.0188553314   7   1   5   2
  -0.2135421424   7   1   6   5
  0.3292256916   7   1   7   1
  -0.3206935665   7   2   3   2
  0.3124641010   7   2   5   1
  -0.2457966820   7   2   5   4
  -0.0951031142   7   2   6   3
  0.3875803924   7   2   7   2
  0.5890139405   7   3   1   1
  -0.1234806881   7   3   2   2
  0.5117025268   7   3   3   3
  0.6320286579   7   3   4   1
  0.2837955838   7   3   4   4
  0.2147945791   7   3   5   5
  0.3477837749   7   3   6   2
  0.2147945791   7   3   6   6
  0.4808662349   7   3   7   3
  0.7978093754   7   4   3   1
  0.0425328409   7   4   4   3
  -0.6943161350   7   4   5   2
  -0.4254787683   7   4   6   5
  0.0798825968   7   4   7   1
  0.7544344665   7   4   7   4
  0.7495673810   7   5   2   1
  -0.9025592460   7   5   4   2
  -0.6727210895   7   5   5   3
  -0.0457902813   7   5   6   1
  0.5584580404   7   5   6   4
  0.5584580404   7   5   7   5
  0.2077568730   7   6   3   2
  -0.2034559794   7   6   5   1
  0.1559881466   7   6   5   4
  0.0672589807   7   6   6   3
  -0.2457966820   7   6   7   2
  0.1559881466   7   6   7   6
  5.9420994667   7   7   1   1
  5.5675754944   7   7   2   2
  5.7261504887   7   7   3   3
  0.3822451503   7   7   4   1
  5.9884341252   7   7   4   4
  5.4955441436   7   7   5   5
  -0.0740560648   7   7   6   2
  5.4955441436   7   7   6   6
  0.2837955838   7   7   7   3
  5.9884341252   7   7   7   7
  0.2325443310   8   1   1   1
  0.1092310032   8   1   2   2
  0.0583116553   8   1   3   3
  0.1552800848   8   1   4   1
  0.3694398736   8   1   4   4
  -0.0614641409   8   1   5   5
  -0.1754931777   8   1   6   2
  -0.0614641409   8   1   6   6
  0.1116933954   8   1   7   3
  0.3694398736   8   1   7   7
  0.3044332131   8   1   8   1
  0.0952911836   8   2   2   1
  -0.2882799066   8   2   4   2
  0.0911077905   8   2   5   3
  -0.2479421362   8   2   6   1
  0.1831393807   8   2   6   4
  0.1831393807   8   2   7   5
  0.2513707620   8   2   8   2
  -0.5760789037   8   3   3   1
  -0.0093485172   8   3   4   3
  0.5213662729   8   3   5   2
  0.6008571863   8   3   6   5
  -0.0297532056   8   3   7   1
  -0.2554565703   8   3   7   4
  0.4903736040   8   3   8   3
  0.5890139405   8   4   1   1
  -0.1234806881   8   4   2   2
  0.5117025268   8   4   3   3
  0.6320286579   8   4   4   1
  0.2837955838   8   4   4   4
  0.2147945791   8   4   5   5
  0.3477837749   8   4   6   2
  0.2147945791   8   4   6   6
  0.4808662349   8   4   7   3
  0.2837955838   8   4   7   7
  0.1116933954   8   4   8   1
  0.4808662349   8   4   8   4
  0.3597786614   8   5   3   2
  -0.4166962896   8   5   5   1
  0.0672589807   8   5   5   4
  0.4692526174   8   5   6   3
  -0.0951031142   8   5   7   2
  0.0672589807   8   5   7   6
  0.4692526174   8   5   8   5
  -1.1481848718   8   6   2   1
  1.0997782937   8   6   4   2
  1.3182665578   8   6   5   3
  -0.3243625050   8   6   6   1
  -0.6727210895   8   6   6   4
  -0.6727210895   8   6   7   5
  0.0911077905   8   6   8   2
  1.3182665578   8   6   8   6
  0.1497593174   8   7   3   1
  0.1850522461   8   7   4   3
  0.0355791702   8   7   5   2
  -0.1430895990   8   7   6   5
  0.2464737973   8   7   7   1
  0.0425328409   8   7   7   4
  -0.0093485172   8   7   8   3
  0.1850522461   8   7   8   7
  6.0961155068   8   8   1   1
  5.3287606740   8   8   2   2
  6.0478209394   8   8   3   3
  0.6707159084   8   8   4   1
  5.7261504887   8   8   4   4
  5.7429198172   8   8   5   5
  0.4258006547   8   8   6   2
  5.7429198172   8   8   6   6
  0.5117025268   8   8   7   3
  5.7261504887   8   8   7   7
  0.0583116553   8   8   8   1
  0.5117025268   8   8   8   4
  6.0478209394   8   8   8   8
  0.0157199711   9   1   3   2
  -0.0464749120   9   1   5   1
  -0.0861575449   9   1   5   4
  0.1754360106   9   1   6   3
  0.1410152628   9   1   7   2
  -0.0861575449   9   1   7   6
  0.1754360106   9   1   8   5
  0.1502393426   9   1   9   1
  -0.0137175320   9   2   3   1
  0.1776960246   9   2   4   3
  0.1791229435   9   2   5   2
  -0.1934290814   9   2   6   5
  0.2318819636   9   2   7   1
  -0.2498545653   9   2   7   4
  -0.0937452162   9   2   8   3
  0.1776960246   9   2   8   7
  0.3676547524   9   2   9   2
  -0.0952911836   9   3   2   1
  0.2882799066   9   3   4   2
  -0.0911077905   9   3   5   3
  0.2479421362   9   3   6   1
  -0.1831393807   9   3   6   4
  -0.1831393807   9   3   7   5
  -0.2513707620   9   3   8   2
  -0.0911077905   9   3   8   6
  0.2513707620   9   3   9   3
  0.3206935665   9   4   3   2
  -0.3124641010   9   4   5   1
  0.2457966820   9   4   5   4
  0.0951031142   9   4   6   3
  -0.3875803924   9   4   7   2
  0.2457966820   9   4   7   6
  0.0951031142   9   4   8   5
  -0.1410152628   9   4   9   1
  0.3875803924   9   4   9   4
  -0.3379064471   9   5   1   1
  0.2162181121   9   5   2   2
  -0.4258006547   9   5   3   3
  -0.4493118327   9   5   4   1
  0.0740560648   9   5   4   4
  -0.2578218861   9   5   5   5
  -0.4873646879   9   5   6   2
  -0.2578218861   9   5   6   6
  -0.3477837749   9   5   7   3
  0.0740560648   9   5   7   7
  0.1754931777   9   5   8   1
  -0.3477837749   9   5   8   4
  -0.4258006547   9   5   8   8
  0.4873646879   9   5   9   5
  0.9087655429   9   6   3   1
  -0.0355791702   9   6   4   3
  -0.8696117378   9   6   5   2
  -0.6667133612   9   6   6   5
  -0.0188553314   9   6   7   1
  0.6943161350   9   6   7   4
  -0.5213662729   9   6   8   3
  -0.0355791702   9   6   8   7
  -0.1791229435   9   6   9   2
  0.8696117378   9   6   9   6
  1.2174837889   9   7   2   1
  -1.4589930664   9   7   4   2
  -1.0997782937   9   7   5   3
  -0.0646258094   9   7   6   1
  0.9025592460   9   7   6   4
  0.9025592460   9   7   7   5
  0.2882799066   9   7   8   2
  -1.0997782937   9   7   8   6
  -0.2882799066   9   7   9   3
  1.4589930664   9   7   9   7
  -0.4425364197   9   8   3   2
  0.4728786562   9   8   5   1
  -0.2077568730   9   8   5   4
  -0.3597786614   9   8   6   3
  0.3206935665   9   8   7   2
  -0.2077568730   9   8   7   6
  -0.3597786614   9   8   8   5
  -0.0157199711   9   8   9   1
  -0.3206935665   9   8   9   4
  0.4425364197   9   8   9   8
  5.3862979942   9   9   1   1
  5.5901471087   9   9   2   2
  5.3287606740   9   9   3   3
  -0.1581002438   9   9   4   1
  5.5675754944   9   9   4   4
  5.3798404615   9   9   5   5
  -0.2162181121   9   9   6   2
  5.3798404615   9   9   6   6
  -0.1234806881   9   9   7   3
  5.5675754944   9   9   7   7
  0.1092310032   9   9   8   1
  -0.1234806881   9   9   8   4
  5.3287606740   9   9   8   8
  0.2162181121   9   9   9   5
  5.5901471087   9   9   9   9
  0.0682080443   10   1   3   1
  0.0803210673   10   1   4   3
  0.0124929805   10   1   5   2
  0.1081863733   10   1   6   5
  0.1070783666   10   1   7   1
  0.1935305996   10   1   7   4
  0.1668209608   10   1   8   3
  0.0803210673   10   1   8   7
  -0.0960349545   10   1   9   2
  -0.0124929805   10   1   9   6
  0.2075405187   10   1   10   1
  -0.0157199711   10   2   3   2
  0.0464749120   10   2   5   1
  0.0861575449   10   2   5   4
  -0.1754360106   10   2   6   3
  -0.1410152628   10   2   7   2
  0.0861575449   10   2   7   6
  -0.1754360106   10   2   8   5
  -0.1502393426   10   2   9   1
  0.1410152628   10   2   9   4
  0.0157199711   10   2   9   8
  0.1502393426   10   2   10   2
  0.2325443310   10   3   1   1
  0.1092310032   10   3   2   2
  0.0583116553   10   3   3   3
  0.1552800848   10   3   4   1
  0.3694398736   10   3   4   4
  -0.0614641409   10   3   5   5
  -0.1754931777   10   3   6   2
  -0.0614641409   10   3   6   6
  0.1116933954   10   3   7   3
  0.3694398736   10   3   7   7
  0.3044332131   10   3   8   1
  0.1116933954   10   3   8   4
  0.0583116553   10   3   8   8
  0.1754931777   10   3   9   5
  0.1092310032   10   3   9   9
  0.3044332131   10   3   10   3
  0.2304730628   10   4   3   1
  0.2464737973   10   4   4   3
  0.0188553314   10   4   5   2
  -0.2135421424   10   4   6   5
  0.3292256916   10   4   7   1
  0.0798825968   10   4   7   4
  -0.0297532056   10   4   8   3
  0.2464737973   10   4   8   7
  0.2318819636   10   4   9   2
  -0.0188553314   10   4   9   6
  0.1070783666   10   4   10   1
  0.3292256916   10   4   10   4
  0.1218003725   10   5   2   1
  0.0646258094   10   5   4   2
  -0.3243625050   10   5   5   3
  0.2873451348   10   5   6   1
  -0.0457902813   10   5   6   4
  -0.0457902813   10   5   7   5
  -0.2479421362   10   5   8   2
  -0.3243625050   10   5   8   6
  0.2479421362   10   5   9   3
  -0.0646258094   10   5   9   7
  0.2873451348   10   5   10   5
  -0.4728786562   10   6   3   2
  0.5111853449   10   6   5   1
  -0.2034559794   10   6   5   4
  -0.4166962896   10   6   6   3
  0.3124641010   10   6   7   2
  -0.2034559794   10   6   7   6
  -0.4166962896   10   6   8   5
  -0.0464749120   10   6   9   1
  -0.3124641010   10   6   9   4
  0.4728786562   10   6   9   8
  0.0464749120   10   6   10   2
  0.5111853449   10   6   10   6
  0.7770864858   10   7   1   1
  -0.1581002438   10   7   2   2
  0.6707159084   10   7   3   3
  0.8309675899   10   7   4   1
  0.3822451503   10   7   4   4
  0.2789272751   10   7   5   5
  0.4493118327   10   7   6   2
  0.2789272751   10   7   6   6
  0.6320286579   10   7   7   3
  0.3822451503   10   7   7   7
  0.1552800848   10   7   8   1
  0.6320286579   10   7   8   4
  0.6707159084   10   7   8   8
  -0.4493118327   10   7   9   5
  -0.1581002438   10   7   9   9
  0.1552800848   10   7   10   3
  0.8309675899   10   7   10   7
  1.1400274056   10   8   3   1
  0.1497593174   10   8   4   3
  -0.9087655429   10   8   5   2
  -0.8702021015   10   8   6   5
  0.2304730628   10   8   7   1
  0.7978093754   10   8   7   4
  -0.5760789037   10   8   8   3
  0.1497593174   10   8   8   7
  -0.0137175320   10   8   9   2
  0.9087655429   10   8   9   6
  0.0682080443   10   8   10   1
  0.2304730628   10   8   10   4
  1.1400274056   10   8   10   8
  -1.1245017301   10   9   2   1
  1.2174837889   10   9   4   2
  1.1481848718   10   9   5   3
  -0.1218003725   10   9   6   1
  -0.7495673810   10   9   6   4
  -0.7495673810   10   9   7   5
  -0.0952911836   10   9   8   2
  1.1481848718   10   9   8   6
  0.0952911836   10   9   9   3
  -1.2174837889   10   9   9   7
  -0.1218003725   10   9   10   5
  1.1245017301   10   9   10   9
  6.2445340287   10   10   1   1
  5.3862979942   10   10   2   2
  6.0961155068   10   10   3   3
  0.7770864858   10   10   4   1
  5.9420994667   10   10   4   4
  5.7149659826   10   10   5   5
  0.3379064471   10   10   6   2
  5.7149659826   10   10   6   6
  0.5890139405   10   10   7   3
  5.9420994667   10   10   7   7
  0.2325443310   10   10   8   1
  0.5890139405   10   10   8   4
  6.0961155068   10   10   8   8
  -0.3379064471   10   10   9   5
  5.3862979942   10   10   9   9
  0.2325443310   10   10   10   3
  0.7770864858   10   10   10   7
  6.2445340287   10   10   10   10
  228.8741793703574103   0   0   0   0
