 &FCI NORB= 18,NELEC= ,MS0= ,
  ORBSYM=1,2,1,3,2,4,1,3,4,2,1,3,2,4,1,3,4,3,
  ISYM=1,
 /
  -77.4964279446605814882786945   1   1   0   0
  -72.0093080773102087732695509   2   2   0   0
  -4.9268428178767020853001668   3   1   0   0
  -69.3337990119582201486991835   3   3   0   0
  -74.0349777248863176737359026   4   4   0   0
  6.6528017245290396175505521   5   2   0   0
  -66.6990859846754915452038404   5   5   0   0
  -68.7534046356400381228013430   6   6   0   0
  1.2431714365222459317550374   7   1   0   0
  -7.0612556934737122915635155   7   3   0   0
  -71.5326307875480011944091530   7   7   0   0
  4.4168470940874318131363907   8   4   0   0
  -66.7619974380487661846927949   8   8   0   0
  -4.8483965382952582956477272   9   6   0   0
  -68.2702772883860831143465475   9   9   0   0
  0.7197237646609213612691747   10   2   0   0
  2.5549118143672981950942358   10   5   0   0
  -66.8554237836636957581504248   10   10   0   0
  -0.3896620554142775638695184   11   1   0   0
  -0.0684178018219432360069732   11   3   0   0
  -4.3581587574972502352466108   11   7   0   0
  -63.0548529289115506912821729   11   11   0   0
  0.9613266494759127311908742   12   4   0   0
  4.8104947720231647778632578   12   8   0   0
  -66.7369600082031695365003543   12   12   0   0
  -1.4892487751747995883278008   13   2   0   0
  2.5905085747018938846508718   13   5   0   0
  4.7592872088984723433213730   13   10   0   0
  -63.0382117389019143161021930   13   13   0   0
  2.9599073138727449716611773   14   6   0   0
  -2.6293694909748830390583407   14   9   0   0
  -60.4863670538094879702839535   14   14   0   0
  2.3121458781514809821544532   15   1   0   0
  1.0008430443929499098487668   15   3   0   0
  -0.8400660070422981684501451   15   7   0   0
  4.3834488034138114898041749   15   11   0   0
  -66.9990770972767677449155599   15   15   0   0
  -1.1706344728264599375222588   16   4   0   0
  0.0268815622195397452287580   16   8   0   0
  -6.7845334304050126661422837   16   12   0   0
  -60.8226130708455272610990505   16   16   0   0
  -1.4028751397329104477762485   17   6   0   0
  -0.5639377083046783756259401   17   9   0   0
  6.4535945689188416451997909   17   14   0   0
  -61.4919806067158702944652759   17   17   0   0
  2.1764008172773814386857794   18   4   0   0
  -0.2773778836476349374251527   18   8   0   0
  -1.1705281177080490984110384   18   12   0   0
  4.8515293439580391421372951   18   16   0   0
  -65.6602395283714201923430664   18   18   0   0
  5.1667215988   1   1   1   1
  1.3446873450   2   1   2   1
  4.4332319170   2   2   1   1
  4.4805071709   2   2   2   2
  0.7342868173   3   1   1   1
  -0.0378526524   3   1   2   2
  0.7642052018   3   1   3   1
  -0.9609894646   3   2   2   1
  1.0068124097   3   2   3   2
  4.3662736538   3   3   1   1
  4.1340661089   3   3   2   2
  0.2374308805   3   3   3   1
  4.3321610841   3   3   3   3
  0.8127927714   4   1   4   1
  0.3870273285   4   2   4   2
  0.2066656699   4   3   4   1
  0.2778034682   4   3   4   3
  5.0800751830   4   4   1   1
  4.3573450178   4   4   2   2
  0.7186199216   4   4   3   1
  4.2930407075   4   4   3   3
  5.0393296764   4   4   4   4
  -0.3920870945   5   1   2   1
  -0.0231530635   5   1   3   2
  0.4046102648   5   1   5   1
  -0.7846270389   5   2   1   1
  -0.3260234161   5   2   2   2
  -0.4563086560   5   2   3   1
  -0.0443736602   5   2   3   3
  -0.7570837634   5   2   4   4
  0.7212839397   5   2   5   2
  -0.8242916754   5   3   2   1
  0.9722969334   5   3   3   2
  -0.1367589403   5   3   5   1
  1.0813286550   5   3   5   3
  -0.1345988015   5   4   4   2
  0.1741524288   5   4   5   4
  4.0941296002   5   5   1   1
  4.2533627420   5   5   2   2
  -0.1519210480   5   5   3   1
  4.1560553906   5   5   3   3
  4.0307104968   5   5   4   4
  0.0338587748   5   5   5   2
  4.3137368558   5   5   5   5
  0.3930494973   6   1   4   2
  -0.1360574996   6   1   5   4
  0.3993714459   6   1   6   1
  0.5930360427   6   2   4   1
  -0.0835014282   6   2   4   3
  0.6768542518   6   2   6   2
  -0.2333302414   6   3   4   2
  -0.0642617016   6   3   5   4
  -0.2371451234   6   3   6   1
  0.3094566756   6   3   6   3
  1.2848952986   6   4   2   1
  -0.9212523778   6   4   3   2
  -0.3633755533   6   4   5   1
  -0.8127919913   6   4   5   3
  1.2635734831   6   4   6   4
  -0.1881608390   6   5   4   1
  -0.1676029449   6   5   4   3
  -0.0101388375   6   5   6   2
  0.2077682517   6   5   6   5
  4.3750858635   6   6   1   1
  4.3913423440   6   6   2   2
  -0.0099840212   6   6   3   1
  4.1061684813   6   6   3   3
  4.3351227909   6   6   4   4
  -0.2836956131   6   6   5   2
  4.1441990021   6   6   5   5
  4.3715146590   6   6   6   6
  -0.0178138159   7   1   1   1
  -0.3063533398   7   1   2   2
  0.2843881684   7   1   3   1
  0.1823441499   7   1   3   3
  -0.0131295904   7   1   4   4
  0.2177133968   7   1   5   2
  -0.1109579977   7   1   5   5
  -0.2396670302   7   1   6   6
  0.4435503397   7   1   7   1
  -0.4692100155   7   2   2   1
  0.0292493642   7   2   3   2
  0.4411418402   7   2   5   1
  -0.1774127122   7   2   5   3
  -0.4136033232   7   2   6   4
  0.5452533926   7   2   7   2
  0.9007716019   7   3   1   1
  0.1784618154   7   3   2   2
  0.7199284197   7   3   3   1
  0.2160462281   7   3   3   3
  0.8548171181   7   3   4   4
  -0.6579029373   7   3   5   2
  -0.1368589749   7   3   5   5
  0.1976477169   7   3   6   6
  0.0842497264   7   3   7   1
  0.8500750802   7   3   7   3
  0.0045830680   7   4   4   1
  0.0817676152   7   4   4   3
  -0.0773245322   7   4   6   2
  0.0495863590   7   4   6   5
  0.1172625107   7   4   7   4
  1.2901407115   7   5   2   1
  -1.1551845629   7   5   3   2
  -0.1573924912   7   5   5   1
  -1.1163189959   7   5   5   3
  1.2018078600   7   5   6   4
  -0.2062672224   7   5   7   2
  1.4805169540   7   5   7   5
  -0.1063923588   7   6   4   2
  0.1068195420   7   6   5   4
  -0.1060179095   7   6   6   1
  -0.0050710663   7   6   6   3
  0.1092873482   7   6   7   6
  4.7752002545   7   7   1   1
  4.4329723221   7   7   2   2
  0.3518054654   7   7   3   1
  4.3625564926   7   7   3   3
  4.6439847957   7   7   4   4
  -0.4336266535   7   7   5   2
  4.2705239419   7   7   5   5
  4.3086705777   7   7   6   6
  -0.0542958681   7   7   7   1
  0.4780350869   7   7   7   3
  4.6996138900   7   7   7   7
  -0.2023531630   8   1   4   1
  -0.2835545515   8   1   4   3
  0.0948709304   8   1   6   2
  0.1773745988   8   1   6   5
  -0.0758331193   8   1   7   4
  0.2921229043   8   1   8   1
  0.2434577443   8   2   4   2
  0.0690912800   8   2   5   4
  0.2476423109   8   2   6   1
  -0.3257530348   8   2   6   3
  0.0031545728   8   2   7   6
  0.3439486665   8   2   8   2
  -0.5647198297   8   3   4   1
  0.0083922994   8   3   4   3
  -0.5732466762   8   3   6   2
  -0.0443403127   8   3   6   5
  -0.0378125030   8   3   7   4
  -0.0243046459   8   3   8   1
  0.5845443301   8   3   8   3
  -0.6787681328   8   4   1   1
  0.0388762167   8   4   2   2
  -0.7068379828   8   4   3   1
  -0.1706089376   8   4   3   3
  -0.6837220473   8   4   4   4
  0.4627724141   8   4   5   2
  0.1140796995   8   4   5   5
  0.0401077146   8   4   6   6
  -0.2152653118   8   4   7   1
  -0.6331482429   8   4   7   3
  -0.3137457487   8   4   7   7
  0.7084367885   8   4   8   4
  0.2269349935   8   5   4   2
  -0.0033903054   8   5   5   4
  0.2321657749   8   5   6   1
  -0.2124442289   8   5   6   3
  0.0227327627   8   5   7   6
  0.2184181811   8   5   8   2
  0.2250158166   8   5   8   5
  0.9474110056   8   6   2   1
  -1.0186109515   8   6   3   2
  0.0448909603   8   6   5   1
  -0.9169404820   8   6   5   3
  0.9275362539   8   6   6   4
  -0.0511331164   8   6   7   2
  1.0865943852   8   6   7   5
  1.1103007738   8   6   8   6
  -0.1310382452   8   7   4   1
  -0.1327875064   8   7   4   3
  0.0051702744   8   7   6   2
  0.1139273349   8   7   6   5
  -0.0143139653   8   7   7   4
  0.1294265560   8   7   8   1
  0.0012291825   8   7   8   3
  0.1041749864   8   7   8   7
  4.3264642893   8   8   1   1
  4.2155965122   8   8   2   2
  0.1144637165   8   8   3   1
  4.1844037734   8   8   3   3
  4.2972687361   8   8   4   4
  -0.1465123538   8   8   5   2
  4.0747031622   8   8   5   5
  4.2398796844   8   8   6   6
  -0.0090923010   8   8   7   1
  0.2144526113   8   8   7   3
  4.2436436936   8   8   7   7
  -0.0491459242   8   8   8   4
  4.2306006227   8   8   8   8
  0.1392154022   9   1   4   2
  -0.2044818728   9   1   5   4
  0.1417513317   9   1   6   1
  0.1015167595   9   1   6   3
  -0.0950392240   9   1   7   6
  -0.1106941973   9   1   8   2
  0.0192326911   9   1   8   5
  0.2612055415   9   1   9   1
  0.1946593840   9   2   4   1
  0.2136072162   9   2   4   3
  -0.0325624630   9   2   6   2
  -0.2112037441   9   2   6   5
  -0.0170691827   9   2   7   4
  -0.2273953161   9   2   8   1
  0.0527314825   9   2   8   3
  -0.1119239789   9   2   8   7
  0.2367173739   9   2   9   2
  0.2763897084   9   3   4   2
  -0.0403047685   9   3   5   4
  0.2829215224   9   3   6   1
  -0.2198907426   9   3   6   3
  -0.0048835058   9   3   7   6
  0.2279473786   9   3   8   2
  0.2365042353   9   3   8   5
  0.0589090358   9   3   9   1
  0.2618750685   9   3   9   3
  0.3253524274   9   4   2   1
  0.0966517923   9   4   3   2
  -0.3923835903   9   4   5   1
  0.0807116844   9   4   5   3
  0.3342705617   9   4   6   4
  -0.3301035015   9   4   7   2
  0.1101438113   9   4   7   5
  -0.1872619993   9   4   8   6
  0.5291193457   9   4   9   4
  -0.5359716800   9   5   4   1
  -0.0472735922   9   5   4   3
  -0.4810330918   9   5   6   2
  0.0471977027   9   5   6   5
  0.0076780366   9   5   7   4
  0.0472541209   9   5   8   1
  0.4542510964   9   5   8   3
  0.0092430751   9   5   8   7
  -0.0558556112   9   5   9   2
  0.4252406956   9   5   9   5
  0.6726132880   9   6   1   1
  0.0929182032   9   6   2   2
  0.5701499709   9   6   3   1
  0.0779786188   9   6   3   3
  0.6797560240   9   6   4   4
  -0.5560012165   9   6   5   2
  -0.0590869013   9   6   5   5
  0.0577125373   9   6   6   6
  0.0097313071   9   6   7   1
  0.5775393699   9   6   7   3
  0.3277473366   9   6   7   7
  -0.6128257421   9   6   8   4
  0.0404203698   9   6   8   8
  0.6141668372   9   6   9   6
  -0.1325707964   9   7   4   2
  0.0156403482   9   7   5   4
  -0.1333608281   9   7   6   1
  0.1152010686   9   7   6   3
  0.0162423479   9   7   7   6
  -0.1166533347   9   7   8   2
  -0.1045247444   9   7   8   5
  -0.0128861596   9   7   9   1
  -0.1076868827   9   7   9   3
  0.0711223875   9   7   9   7
  -1.0772790885   9   8   2   1
  0.8979396473   9   8   3   2
  0.1746161523   9   8   5   1
  0.8878354768   9   8   5   3
  -1.0947199227   9   8   6   4
  0.1692778404   9   8   7   2
  -1.0900118029   9   8   7   5
  -0.9011380460   9   8   8   6
  -0.2097608557   9   8   9   4
  1.0413461743   9   8   9   8
  4.7369845081   9   9   1   1
  4.2418980362   9   9   2   2
  0.4877439607   9   9   3   1
  4.1693773286   9   9   3   3
  4.7466363013   9   9   4   4
  -0.5345153492   9   9   5   2
  4.0239420681   9   9   5   5
  4.2409206906   9   9   6   6
  -0.0344590953   9   9   7   1
  0.5580740774   9   9   7   3
  4.3952317307   9   9   7   7
  -0.4971468145   9   9   8   4
  4.2066521178   9   9   8   8
  0.5118614605   9   9   9   6
  4.5847824866   9   9   9   9
  0.0084597421   10   1   2   1
  0.0881222368   10   1   3   2
  -0.0729732503   10   1   5   1
  -0.0340671692   10   1   5   3
  0.0440751546   10   1   6   4
  0.0307657130   10   1   7   2
  -0.0187282102   10   1   7   5
  -0.1714866462   10   1   8   6
  0.2385515085   10   1   9   4
  -0.0758497110   10   1   9   8
  0.2026326565   10   1   10   1
  0.0249613342   10   2   1   1
  -0.1850420387   10   2   2   2
  0.2020099044   10   2   3   1
  0.0442021219   10   2   3   3
  0.0557235338   10   2   4   4
  0.0431367154   10   2   5   2
  -0.0300550088   10   2   5   5
  -0.1868908299   10   2   6   6
  0.1991978771   10   2   7   1
  0.0335640452   10   2   7   3
  -0.0303598648   10   2   7   7
  -0.2421432019   10   2   8   4
  -0.0861640660   10   2   8   8
  0.1627946497   10   2   9   6
  0.0727094500   10   2   9   9
  0.2097313842   10   2   10   2
  0.3371274614   10   3   2   1
  -0.0528217523   10   3   3   2
  -0.2707942680   10   3   5   1
  0.0428186763   10   3   5   3
  0.3628206712   10   3   6   4
  -0.2976590902   10   3   7   2
  0.1154064147   10   3   7   5
  0.0996785260   10   3   8   6
  0.2595518375   10   3   9   4
  -0.2539398829   10   3   9   8
  0.0441028777   10   3   10   1
  0.2692516668   10   3   10   3
  0.0844642212   10   4   4   2
  -0.1655799782   10   4   5   4
  0.0880859655   10   4   6   1
  0.1234667681   10   4   6   3
  -0.0228524693   10   4   7   6
  -0.1369399969   10   4   8   2
  0.0473838729   10   4   8   5
  0.2490643276   10   4   9   1
  0.0733007032   10   4   9   3
  -0.0030281145   10   4   9   7
  0.2989850240   10   4   10   4
  -0.4173423575   10   5   1   1
  0.0043208537   10   5   2   2
  -0.4122850537   10   5   3   1
  -0.0084801666   10   5   3   3
  -0.4639648112   10   5   4   4
  0.3696060023   10   5   5   2
  0.1863189410   10   5   5   5
  -0.0650416886   10   5   6   6
  -0.0466089727   10   5   7   1
  -0.4501043393   10   5   7   3
  -0.0826935505   10   5   7   7
  0.3937406032   10   5   8   4
  -0.0862457315   10   5   8   8
  -0.3689028741   10   5   9   6
  -0.3629418152   10   5   9   9
  -0.0643404309   10   5   10   2
  0.3546895470   10   5   10   5
  0.1311229504   10   6   4   1
  0.2236189140   10   6   4   3
  -0.1074867297   10   6   6   2
  -0.1209518833   10   6   6   5
  0.0682470816   10   6   7   4
  -0.2404739138   10   6   8   1
  0.0370618506   10   6   8   3
  -0.0546133190   10   6   8   7
  0.1872327498   10   6   9   2
  -0.0602590737   10   6   9   5
  0.2582824376   10   6   10   6
  0.6244202568   10   7   2   1
  -0.5611246121   10   7   3   2
  -0.0742171706   10   7   5   1
  -0.5437327758   10   7   5   3
  0.5814542991   10   7   6   4
  -0.0972219269   10   7   7   2
  0.7189871555   10   7   7   5
  0.5270015228   10   7   8   6
  0.0521484714   10   7   9   4
  -0.5283466457   10   7   9   8
  -0.0085695164   10   7   10   1
  0.0538372496   10   7   10   3
  0.3491867536   10   7   10   7
  -0.3315693669   10   8   4   2
  0.1471866310   10   8   5   4
  -0.3398867645   10   8   6   1
  0.1580559081   10   8   6   3
  0.0968954155   10   8   7   6
  -0.1703298915   10   8   8   2
  -0.1785881191   10   8   8   5
  -0.1661936853   10   8   9   1
  -0.2409660457   10   8   9   3
  0.0739847243   10   8   9   7
  -0.1268116066   10   8   10   4
  0.3551987252   10   8   10   8
  0.7528131923   10   9   4   1
  0.2369251177   10   9   4   3
  0.4999715668   10   9   6   2
  -0.2070855760   10   9   6   5
  0.0092286904   10   9   7   4
  -0.2388818855   10   9   8   1
  -0.4812001225   10   9   8   3
  -0.1291353520   10   9   8   7
  0.2282694901   10   9   9   2
  -0.4904070741   10   9   9   5
  0.1827857570   10   9   10   6
  0.8064658945   10   9   10   9
  4.7369845081   10   10   1   1
  4.2418980362   10   10   2   2
  0.4877439607   10   10   3   1
  4.1693773286   10   10   3   3
  4.7466363013   10   10   4   4
  -0.5345153492   10   10   5   2
  4.0239420681   10   10   5   5
  4.2409206906   10   10   6   6
  -0.0344590953   10   10   7   1
  0.5580740774   10   10   7   3
  4.3952317307   10   10   7   7
  -0.4971468145   10   10   8   4
  4.2066521178   10   10   8   8
  0.5118614605   10   10   9   6
  4.5847824866   10   10   9   9
  0.0727094500   10   10   10   2
  -0.3629418152   10   10   10   5
  4.5847824866   10   10   10   10
  0.0224908041   11   1   1   1
  0.0053390838   11   1   2   2
  0.0222419654   11   1   3   1
  0.0813590229   11   1   3   3
  -0.0074382447   11   1   4   4
  0.0480320054   11   1   5   2
  -0.0469300852   11   1   5   5
  0.0488512586   11   1   6   6
  0.0808261879   11   1   7   1
  0.0728339753   11   1   7   3
  0.0269980613   11   1   7   7
  0.0641972547   11   1   8   4
  0.0918951398   11   1   8   8
  -0.1152945568   11   1   9   6
  -0.0558050559   11   1   9   9
  -0.0807961402   11   1   10   2
  0.0053748440   11   1   10   5
  -0.0558050559   11   1   10   10
  0.1321403200   11   1   11   1
  0.0310378264   11   2   2   1
  -0.0665742149   11   2   3   2
  0.0293698228   11   2   5   1
  0.0322210292   11   2   5   3
  0.0578148782   11   2   6   4
  -0.0358883657   11   2   7   2
  -0.0405842763   11   2   7   5
  0.1819908555   11   2   8   6
  -0.1316226176   11   2   9   4
  -0.0511204059   11   2   9   8
  -0.1231179762   11   2   10   1
  0.0725139363   11   2   10   3
  -0.0208904208   11   2   10   7
  0.1692072117   11   2   11   2
  0.0257622619   11   3   1   1
  -0.0987032638   11   3   2   2
  0.1265668223   11   3   3   1
  0.1702528693   11   3   3   3
  -0.0260692930   11   3   4   4
  0.1365985506   11   3   5   2
  0.1009920006   11   3   5   5
  -0.1615896998   11   3   6   6
  0.2231166495   11   3   7   1
  -0.0189929393   11   3   7   3
  0.1310039386   11   3   7   7
  -0.1265541091   11   3   8   4
  -0.0592537358   11   3   8   8
  0.0291465978   11   3   9   6
  -0.0585702370   11   3   9   9
  0.1519126465   11   3   10   2
  0.1044267621   11   3   10   5
  -0.0585702370   11   3   10   10
  -0.0135884796   11   3   11   1
  0.2721099394   11   3   11   3
  -0.1021083450   11   4   4   1
  -0.1434656227   11   4   4   3
  0.0546545092   11   4   6   2
  0.1269394757   11   4   6   5
  0.0064574368   11   4   7   4
  0.1627491852   11   4   8   1
  -0.0569632024   11   4   8   3
  0.0303129973   11   4   8   7
  -0.1693070759   11   4   9   2
  0.0578587593   11   4   9   5
  -0.1917904021   11   4   10   6
  -0.1472140448   11   4   10   9
  0.1764626734   11   4   11   4
  0.0856055075   11   5   2   1
  0.1943507105   11   5   3   2
  -0.2657126762   11   5   5   1
  0.3041074650   11   5   5   3
  0.1103539652   11   5   6   4
  -0.2994245468   11   5   7   2
  -0.1767477251   11   5   7   5
  -0.1398785083   11   5   8   6
  0.2412355171   11   5   9   4
  0.0017723082   11   5   9   8
  0.0282209386   11   5   10   1
  0.2414813928   11   5   10   3
  -0.0881314246   11   5   10   7
  0.0710509915   11   5   11   2
  0.2822855965   11   5   11   5
  0.1467222104   11   6   4   2
  0.0780663508   11   6   5   4
  0.1508692376   11   6   6   1
  -0.2437806727   11   6   6   3
  -0.0110674183   11   6   7   6
  0.2666152687   11   6   8   2
  0.1098123536   11   6   8   5
  -0.1342913398   11   6   9   1
  0.1280021450   11   6   9   3
  -0.0441850688   11   6   9   7
  -0.1813869482   11   6   10   4
  -0.1425625340   11   6   10   8
  0.2895752220   11   6   11   6
  0.5957650300   11   7   1   1
  0.1199611541   11   7   2   2
  0.4742472245   11   7   3   1
  0.1411458105   11   7   3   3
  0.5656893345   11   7   4   4
  -0.4369117841   11   7   5   2
  -0.0913565774   11   7   5   5
  0.1332457427   11   7   6   6
  0.0526471104   11   7   7   1
  0.5625770125   11   7   7   3
  0.3152876618   11   7   7   7
  -0.4166343886   11   7   8   4
  0.1428923371   11   7   8   8
  0.3811552405   11   7   9   6
  0.3695328891   11   7   9   9
  0.0197551336   11   7   10   2
  -0.2985367698   11   7   10   5
  0.3695328891   11   7   10   10
  0.0487040955   11   7   11   1
  -0.0158772213   11   7   11   3
  0.3723548964   11   7   11   7
  0.3893738962   11   8   4   1
  -0.0820299878   11   8   4   3
  0.4745182266   11   8   6   2
  -0.0064905045   11   8   6   5
  -0.0696846366   11   8   7   4
  0.0942585293   11   8   8   1
  -0.3851629162   11   8   8   3
  -0.0076769804   11   8   8   7
  -0.0400644619   11   8   9   2
  -0.3042369992   11   8   9   5
  -0.1248349252   11   8   10   6
  0.4063332676   11   8   10   9
  0.0760519598   11   8   11   4
  0.4401743523   11   8   11   8
  -0.3315693669   11   9   4   2
  0.1471866310   11   9   5   4
  -0.3398867645   11   9   6   1
  0.1580559081   11   9   6   3
  0.0968954155   11   9   7   6
  -0.1703298915   11   9   8   2
  -0.1785881191   11   9   8   5
  -0.1661936853   11   9   9   1
  -0.2409660457   11   9   9   3
  0.0739847243   11   9   9   7
  -0.1268116066   11   9   10   4
  0.3551987252   11   9   10   8
  -0.1425625340   11   9   11   6
  0.3551987252   11   9   11   9
  -1.0772790885   11   10   2   1
  0.8979396473   11   10   3   2
  0.1746161523   11   10   5   1
  0.8878354768   11   10   5   3
  -1.0947199227   11   10   6   4
  0.1692778404   11   10   7   2
  -1.0900118029   11   10   7   5
  -0.9011380460   11   10   8   6
  -0.2097608557   11   10   9   4
  1.0413461743   11   10   9   8
  -0.0758497110   11   10   10   1
  -0.2539398829   11   10   10   3
  -0.5283466457   11   10   10   7
  -0.0511204059   11   10   11   2
  0.0017723082   11   10   11   5
  1.0413461743   11   10   11   10
  4.3264642893   11   11   1   1
  4.2155965122   11   11   2   2
  0.1144637165   11   11   3   1
  4.1844037734   11   11   3   3
  4.2972687361   11   11   4   4
  -0.1465123538   11   11   5   2
  4.0747031622   11   11   5   5
  4.2398796844   11   11   6   6
  -0.0090923010   11   11   7   1
  0.2144526113   11   11   7   3
  4.2436436936   11   11   7   7
  -0.0491459242   11   11   8   4
  4.2306006227   11   11   8   8
  0.0404203698   11   11   9   6
  4.2066521178   11   11   9   9
  -0.0861640660   11   11   10   2
  -0.0862457315   11   11   10   5
  4.2066521178   11   11   10   10
  0.0918951398   11   11   11   1
  -0.0592537358   11   11   11   3
  0.1428923371   11   11   11   7
  4.2306006227   11   11   11   11
  0.0010927533   12   1   4   1
  0.1045602752   12   1   4   3
  -0.1036746031   12   1   6   2
  0.0636387219   12   1   6   5
  0.1500483134   12   1   7   4
  -0.0971641350   12   1   8   1
  -0.0439189562   12   1   8   3
  -0.0177087810   12   1   8   7
  -0.0216735407   12   1   9   2
  0.0130900703   12   1   9   5
  0.0881886782   12   1   10   6
  0.0078669056   12   1   10   9
  0.0073978341   12   1   11   4
  -0.0926436268   12   1   11   8
  0.1920420032   12   1   12   1
  -0.1470656071   12   2   4   2
  0.1431624529   12   2   5   4
  -0.1466513510   12   2   6   1
  -0.0022847426   12   2   6   3
  0.1470542652   12   2   7   6
  -0.0005652746   12   2   8   2
  0.0271965012   12   2   8   5
  -0.1269319084   12   2   9   1
  -0.0102665198   12   2   9   3
  0.0234419083   12   2   9   7
  -0.0295619113   12   2   10   4
  0.1336383135   12   2   10   8
  -0.0187100150   12   2   11   6
  0.1336383135   12   2   11   9
  0.1979436939   12   2   12   2
  0.2045775598   12   3   4   1
  0.1990035057   12   3   4   3
  0.0005053454   12   3   6   2
  -0.1699768835   12   3   6   5
  0.0223206751   12   3   7   4
  -0.1935983276   12   3   8   1
  -0.0105138825   12   3   8   3
  -0.1566229763   12   3   8   7
  0.1666552903   12   3   9   2
  -0.0199809348   12   3   9   5
  0.0806608218   12   3   10   6
  0.2002790924   12   3   10   9
  -0.0437693727   12   3   11   4
  0.0173158905   12   3   11   8
  0.0275794208   12   3   12   1
  0.2356109226   12   3   12   3
  -0.0082648355   12   4   1   1
  -0.2387624903   12   4   2   2
  0.2272329042   12   4   3   1
  0.1444273986   12   4   3   3
  -0.0050734661   12   4   4   4
  0.1665669631   12   4   5   2
  -0.0867560518   12   4   5   5
  -0.1870841455   12   4   6   6
  0.3479351257   12   4   7   1
  0.0706898225   12   4   7   3
  -0.0387962524   12   4   7   7
  -0.1730362958   12   4   8   4
  -0.0064635246   12   4   8   8
  0.0117926573   12   4   9   6
  -0.0235747966   12   4   9   9
  0.1569762159   12   4   10   2
  -0.0386190125   12   4   10   5
  -0.0235747966   12   4   10   10
  0.0629979711   12   4   11   1
  0.1757635531   12   4   11   3
  0.0443329965   12   4   11   7
  -0.0064635246   12   4   11   11
  0.2729658415   12   4   12   4
  0.2694870494   12   5   4   2
  -0.0335926651   12   5   5   4
  0.2710241702   12   5   6   1
  -0.2322764249   12   5   6   3
  -0.0344671998   12   5   7   6
  0.2350543104   12   5   8   2
  0.2110563787   12   5   8   5
  0.0280834420   12   5   9   1
  0.2175672171   12   5   9   3
  -0.1445837716   12   5   9   7
  0.0072573398   12   5   10   4
  -0.1498479511   12   5   10   8
  0.0875744636   12   5   11   6
  -0.1498479511   12   5   11   9
  -0.0495703397   12   5   12   2
  0.2939655775   12   5   12   5
  -0.3544578787   12   6   2   1
  0.0262730812   12   6   3   2
  0.3291206907   12   6   5   1
  -0.1286730672   12   6   5   3
  -0.3132712129   12   6   6   4
  0.4073054430   12   6   7   2
  -0.1580635138   12   6   7   5
  -0.0436003312   12   6   8   6
  -0.2455388721   12   6   9   4
  0.1309092845   12   6   9   8
  0.0238050255   12   6   10   1
  -0.2233923303   12   6   10   3
  -0.0745499404   12   6   10   7
  -0.0284384019   12   6   11   2
  -0.2236176834   12   6   11   5
  0.1309092845   12   6   11   10
  0.3042909830   12   6   12   6
  0.5444146943   12   7   4   1
  0.0571574965   12   7   4   3
  0.4823802946   12   7   6   2
  -0.0602843966   12   7   6   5
  -0.0049495203   12   7   7   4
  -0.0500813009   12   7   8   1
  -0.4543125426   12   7   8   3
  -0.0454481863   12   7   8   7
  0.0532472849   12   7   9   2
  -0.3973010948   12   7   9   5
  0.0208319635   12   7   10   6
  0.3939145541   12   7   10   9
  -0.0160834106   12   7   11   4
  0.2318633221   12   7   11   8
  -0.0100179734   12   7   12   1
  0.0747091052   12   7   12   3
  0.4907824390   12   7   12   7
  -0.5957650300   12   8   1   1
  -0.1199611541   12   8   2   2
  -0.4742472245   12   8   3   1
  -0.1411458105   12   8   3   3
  -0.5656893345   12   8   4   4
  0.4369117841   12   8   5   2
  0.0913565774   12   8   5   5
  -0.1332457427   12   8   6   6
  -0.0526471104   12   8   7   1
  -0.5625770125   12   8   7   3
  -0.3152876618   12   8   7   7
  0.4166343886   12   8   8   4
  -0.1428923371   12   8   8   8
  -0.3811552405   12   8   9   6
  -0.3695328891   12   8   9   9
  -0.0197551336   12   8   10   2
  0.2985367698   12   8   10   5
  -0.3695328891   12   8   10   10
  -0.0487040955   12   8   11   1
  0.0158772213   12   8   11   3
  -0.3723548964   12   8   11   7
  -0.1428923371   12   8   11   11
  -0.0443329965   12   8   12   4
  0.3723548964   12   8   12   8
  -0.6244202568   12   9   2   1
  0.5611246121   12   9   3   2
  0.0742171706   12   9   5   1
  0.5437327758   12   9   5   3
  -0.5814542991   12   9   6   4
  0.0972219269   12   9   7   2
  -0.7189871555   12   9   7   5
  -0.5270015228   12   9   8   6
  -0.0521484714   12   9   9   4
  0.5283466457   12   9   9   8
  0.0085695164   12   9   10   1
  -0.0538372496   12   9   10   3
  -0.3491867536   12   9   10   7
  0.0208904208   12   9   11   2
  0.0881314246   12   9   11   5
  0.5283466457   12   9   11   10
  0.0745499404   12   9   12   6
  0.3491867536   12   9   12   9
  0.1325707964   12   10   4   2
  -0.0156403482   12   10   5   4
  0.1333608281   12   10   6   1
  -0.1152010686   12   10   6   3
  -0.0162423479   12   10   7   6
  0.1166533347   12   10   8   2
  0.1045247444   12   10   8   5
  0.0128861596   12   10   9   1
  0.1076868827   12   10   9   3
  -0.0711223875   12   10   9   7
  0.0030281145   12   10   10   4
  -0.0739847243   12   10   10   8
  0.0441850688   12   10   11   6
  -0.0739847243   12   10   11   9
  -0.0234419083   12   10   12   2
  0.1445837716   12   10   12   5
  0.0711223875   12   10   12   10
  0.1310382452   12   11   4   1
  0.1327875064   12   11   4   3
  -0.0051702744   12   11   6   2
  -0.1139273349   12   11   6   5
  0.0143139653   12   11   7   4
  -0.1294265560   12   11   8   1
  -0.0012291825   12   11   8   3
  -0.1041749864   12   11   8   7
  0.1119239789   12   11   9   2
  -0.0092430751   12   11   9   5
  0.0546133190   12   11   10   6
  0.1291353520   12   11   10   9
  -0.0303129973   12   11   11   4
  0.0076769804   12   11   11   8
  0.0177087810   12   11   12   1
  0.1566229763   12   11   12   3
  0.0454481863   12   11   12   7
  0.1041749864   12   11   12   11
  4.7752002545   12   12   1   1
  4.4329723221   12   12   2   2
  0.3518054654   12   12   3   1
  4.3625564926   12   12   3   3
  4.6439847957   12   12   4   4
  -0.4336266535   12   12   5   2
  4.2705239419   12   12   5   5
  4.3086705777   12   12   6   6
  -0.0542958681   12   12   7   1
  0.4780350869   12   12   7   3
  4.6996138900   12   12   7   7
  -0.3137457487   12   12   8   4
  4.2436436936   12   12   8   8
  0.3277473366   12   12   9   6
  4.3952317307   12   12   9   9
  -0.0303598648   12   12   10   2
  -0.0826935505   12   12   10   5
  4.3952317307   12   12   10   10
  0.0269980613   12   12   11   1
  0.1310039386   12   12   11   3
  0.3152876618   12   12   11   7
  4.2436436936   12   12   11   11
  -0.0387962524   12   12   12   4
  -0.3152876618   12   12   12   8
  4.6996138900   12   12   12   12
  0.0653830226   13   1   2   1
  -0.0371682276   13   1   3   2
  -0.0434214385   13   1   5   1
  0.0082905004   13   1   5   3
  -0.0034580886   13   1   6   4
  -0.0885143836   13   1   7   2
  0.1185163700   13   1   7   5
  -0.0014351454   13   1   8   6
  -0.0204464032   13   1   9   4
  0.0685343772   13   1   9   8
  -0.0614587112   13   1   10   1
  -0.0574092661   13   1   10   3
  0.0577590175   13   1   10   7
  -0.0540747943   13   1   11   2
  -0.0469836102   13   1   11   5
  0.0685343772   13   1   11   10
  -0.0653008494   13   1   12   6
  -0.0577590175   13   1   12   9
  0.1246964870   13   1   13   1
  0.1013373215   13   2   1   1
  0.1466202451   13   2   2   2
  -0.0401927244   13   2   3   1
  0.0480402020   13   2   3   3
  0.0416545136   13   2   4   4
  -0.0729334756   13   2   5   2
  0.1823779447   13   2   5   5
  0.0300310952   13   2   6   6
  -0.1081238075   13   2   7   1