 &FCI NORB= 18,NELEC= ,MS0= ,
  ORBSYM=1,2,1,2,3,4,3,1,2,1,2,4,3,4,1,2,1,2,
  ISYM=1,
 /
  -72.1789987063720843707415042   1   1   0   0
  -66.7294401323838002326738206   2   2   0   0
  -4.4303297787130384577380937   3   1   0   0
  -66.0584765354516605384560535   3   3   0   0
  6.0477181206652907974330446   4   2   0   0
  -66.6102573131597068822884466   4   4   0   0
  -66.1794113134985195756598841   5   5   0   0
  -61.0637770583786334555043140   6   6   0   0
  4.5338232903888480151977092   7   5   0   0
  -65.0800585178912172068521613   7   7   0   0
  -2.2708610049772550709690222   8   1   0   0
  4.8564886223100236506411420   8   3   0   0
  -63.3298315067414776535770216   8   8   0   0
  1.3419686418884060330469765   9   2   0   0
  5.1681859353793342393146304   9   4   0   0
  -66.6822701374736794832642772   9   9   0   0
  2.1095281380141228666502684   10   1   0   0
  0.6454739168828411699507797   10   3   0   0
  3.6328522505574798451277729   10   8   0   0
  -63.7471856926853774893970694   10   10   0   0
  -1.3750285805507971303995873   11   2   0   0
  2.2842684450528119022294504   11   4   0   0
  3.2777134475921267942055692   11   9   0   0
  -58.5470347351348863185194205   11   11   0   0
  2.5749680639345262633810307   12   6   0   0
  -60.2801415450409052709801472   12   12   0   0
  -2.2331963000977812505709608   13   5   0   0
  -2.6032000598650699707548029   13   7   0   0
  -56.2639585642144055555036175   13   13   0   0
  2.2639432915831654291594077   14   6   0   0
  4.5339137138626179890366075   14   12   0   0
  -61.3795097921844430288729200   14   14   0   0
  0.4767325597403559989118094   15   1   0   0
  1.0412373268193917397184123   15   3   0   0
  -1.9576780340557591308936480   15   8   0   0
  -5.1340465504574099853130065   15   10   0   0
  -59.7766515176262061004308634   15   15   0   0
  0.5035064302778753386746757   16   2   0   0
  -1.1805228349189134107177779   16   4   0   0
  0.6061538265352037768707305   16   9   0   0
  4.9546591563956443593497170   16   11   0   0
  -57.1724615286466217867200612   16   16   0   0
  0.0285959703275016074996984   17   1   0   0
  -0.3958282821278262808561976   17   3   0   0
  1.2234060049797714775365876   17   8   0   0
  -1.4419876701717040390349212   17   10   0   0
  5.7790932886186334727085523   17   15   0   0
  -56.5325466346927569816216419   17   17   0   0
  0.0227131259909936211727199   18   2   0   0
  -0.4327445974800319117292702   18   4   0   0
  1.7450282710871869440438786   18   9   0   0
  -2.0730312307888030254332534   18   11   0   0
  -4.3901613615685493030582620   18   16   0   0
  -61.0822267467710133814762230   18   18   0   0
  4.9100879305   1   1   1   1
  1.3584806998   2   1   2   1
  4.0416319439   2   2   1   1
  4.2505114583   2   2   2   2
  0.7844182581   3   1   1   1
  -0.2169626223   3   1   2   2
  0.9327325962   3   1   3   1
  -1.0981948039   3   2   2   1
  1.2242124345   3   2   3   2
  4.2181194257   3   3   1   1
  3.9310727089   3   3   2   2
  0.2630635319   3   3   3   1
  4.0287145643   3   3   3   3
  -0.4701439819   4   1   2   1
  -0.0383025804   4   1   3   2
  0.6834867682   4   1   4   1
  -0.7972632755   4   2   1   1
  -0.1646362250   4   2   2   2
  -0.5634041949   4   2   3   1
  -0.2100089136   4   2   3   3
  0.6938909087   4   2   4   2
  -0.8234303279   4   3   2   1
  0.7783173326   4   3   3   2
  0.1476362319   4   3   4   1
  0.8211244211   4   3   4   3
  4.4033692013   4   4   1   1
  4.0145628789   4   4   2   2
  0.3499055990   4   4   3   1
  4.0947465280   4   4   3   3
  -0.3371682820   4   4   4   2
  4.3196480603   4   4   4   4
  0.4415605684   5   1   5   1
  0.2731011360   5   2   5   2
  0.2182901241   5   3   5   1
  0.6242833165   5   3   5   3
  0.0929292716   5   4   5   2
  0.1097900281   5   4   5   4
  4.6045247846   5   5   1   1
  3.8313566502   5   5   2   2
  0.7141860238   5   5   3   1
  4.1356227381   5   5   3   3
  -0.5326091553   5   5   4   2
  4.1330058569   5   5   4   4
  4.5796449508   5   5   5   5
  -0.2591620633   6   1   5   2
  -0.1012986156   6   1   5   4
  0.2519725328   6   1   6   1
  -0.1971190686   6   2   5   1
  0.4367686995   6   2   5   3
  0.6415524400   6   2   6   2
  0.3532059324   6   3   5   2
  0.1540157173   6   3   5   4
  -0.3404088649   6   3   6   1
  0.4714981230   6   3   6   3
  -0.0783290523   6   4   5   1
  0.1566214215   6   4   5   3
  0.2304564764   6   4   6   2
  0.1376850120   6   4   6   4
  -1.1576803387   6   5   2   1
  1.1782128612   6   5   3   2
  0.1024294643   6   5   4   1
  0.7780311436   6   5   4   3
  1.2158159009   6   5   6   5
  3.6457119468   6   6   1   1
  4.1683295214   6   6   2   2
  -0.4963979961   6   6   3   1
  3.8098202453   6   6   3   3
  0.1447603271   6   6   4   2
  3.7411617520   6   6   4   4
  3.6343843633   6   6   5   5
  4.3617366105   6   6   6   6
  -0.2266875305   7   1   5   1
  -0.5661410059   7   1   5   3
  -0.3703879691   7   1   6   2
  -0.1178619626   7   1   6   4
  0.5194375447   7   1   7   1
  0.3032723062   7   2   5   2
  0.1396961495   7   2   5   4
  -0.2990753983   7   2   6   1
  0.4074260741   7   2   6   3
  0.3607548887   7   2   7   2
  -0.4250922915   7   3   5   1
  -0.0501934261   7   3   5   3
  0.3534375380   7   3   6   2
  0.1496166923   7   3   6   4
  0.0813366770   7   3   7   1
  0.4625480536   7   3   7   3
  0.1163236484   7   4   5   2
  0.0262380401   7   4   5   4
  -0.0931155359   7   4   6   1
  0.1464075464   7   4   6   3
  0.1027387395   7   4   7   2
  0.1106953309   7   4   7   4
  -0.8507647602   7   5   1   1
  0.3004034490   7   5   2   2
  -1.0755633679   7   5   3   1
  -0.2893461268   7   5   3   3
  0.6004732146   7   5   4   2
  -0.3480691133   7   5   4   4
  -0.8392945302   7   5   5   5
  0.6468937210   7   5   6   6
  1.3205505721   7   5   7   5
  -1.2979533489   7   6   2   1
  1.3251767379   7   6   3   2
  0.1095151279   7   6   4   1
  0.8737770019   7   6   4   3
  1.3660443568   7   6   6   5
  1.5349087781   7   6   7   6
  4.4003422389   7   7   1   1
  3.9004487860   7   7   2   2
  0.4590468230   7   7   3   1
  4.0667324258   7   7   3   3
  -0.3872895458   7   7   4   2
  4.0502865357   7   7   4   4
  4.3794026031   7   7   5   5
  3.7864143436   7   7   6   6
  -0.5263017206   7   7   7   5
  4.2533839375   7   7   7   7
  0.1504423809   8   1   1   1
  0.3159212458   8   1   2   2
  -0.1782849763   8   1   3   1
  -0.0043805284   8   1   3   3
  -0.2236749898   8   1   4   2
  0.0401878666   8   1   4   4
  -0.0348644780   8   1   5   5
  0.2372470373   8   1   6   6
  0.2430464812   8   1   7   5
  0.0200443168   8   1   7   7
  0.3458712688   8   1   8   1
  0.3420342177   8   2   2   1
  -0.0099333104   8   2   3   2
  -0.4478893519   8   2   4   1
  0.1824516923   8   2   4   3
  -0.1095595266   8   2   6   5
  -0.1192286251   8   2   7   6
  0.6168167967   8   2   8   2
  -0.6813015791   8   3   1   1
  -0.1075935572   8   3   2   2
  -0.5137631225   8   3   3   1
  -0.1672494373   8   3   3   3
  0.6172977232   8   3   4   2
  -0.1832679286   8   3   4   4
  -0.5453132112   8   3   5   5
  0.0986087532   8   3   6   6
  0.5706739855   8   3   7   5
  -0.4068866640   8   3   7   7
  -0.1957034005   8   3   8   1
  0.6189232342   8   3   8   3
  -1.1070201640   8   4   2   1
  1.1687494763   8   4   3   2
  0.0383581336   8   4   4   1
  0.8362767882   8   4   4   3
  1.0746972187   8   4   6   5
  1.2088385231   8   4   7   6
  0.0243816125   8   4   8   2
  1.2250707357   8   4   8   4
  -0.1917458329   8   5   5   1
  -0.2220329909   8   5   5   3
  -0.0532531377   8   5   6   2
  0.0403402525   8   5   6   4
  0.2252889759   8   5   7   1
  0.1601313791   8   5   7   3
  0.1740712676   8   5   8   5
  -0.0092731077   8   6   5   2
  0.0426575687   8   6   5   4
  0.0196705677   8   6   6   1
  0.0099801037   8   6   6   3
  -0.0138458469   8   6   7   2
  0.0608979856   8   6   7   4
  0.1168641361   8   6   8   6
  0.1609837995   8   7   5   1
  0.1762540878   8   7   5   3
  0.0210123215   8   7   6   2
  0.0618821210   8   7   6   4
  -0.1528569611   8   7   7   1
  -0.1102449586   8   7   7   3
  -0.0349231081   8   7   8   5
  0.1349528004   8   7   8   7
  3.9733472855   8   8   1   1
  4.1814321150   8   8   2   2
  -0.2105795673   8   8   3   1
  3.9307976692   8   8   3   3
  -0.0677685885   8   8   4   2
  4.0477293563   8   8   4   4
  3.7782942262   8   8   5   5
  4.0310530507   8   8   6   6
  0.2251259758   8   8   7   5
  3.8305042917   8   8   7   7
  0.2234270991   8   8   8   1
  0.0157545225   8   8   8   3
  4.2311077009   8   8   8   8
  0.0335783381   9   1   2   1
  0.1301318900   9   1   3   2
  -0.2109419806   9   1   4   1
  -0.2619387220   9   1   4   3
  0.0776725591   9   1   6   5
  0.0890611218   9   1   7   6
  -0.1764835945   9   1   8   2
  0.0394351470   9   1   8   4
  0.3816739297   9   1   9   1
  -0.0658474834   9   2   1   1
  -0.2629875819   9   2   2   2
  0.2033676012   9   2   3   1
  0.0358035099   9   2   3   3
  0.1679456202   9   2   4   2
  0.0833693042   9   2   4   4
  0.0108338584   9   2   5   5
  -0.2591820818   9   2   6   6
  -0.2412465790   9   2   7   5
  -0.0435155779   9   2   7   7
  -0.3186080150   9   2   8   1
  0.2048509957   9   2   8   3
  -0.1562183537   9   2   8   8
  0.3462897661   9   2   9   2
  0.4021284667   9   3   2   1
  0.0181813236   9   3   3   2
  -0.5699207713   9   3   4   1
  -0.0692176697   9   3   4   3
  -0.1400060057   9   3   6   5
  -0.1520020395   9   3   7   6
  0.4442341177   9   3   8   2
  0.0259715471   9   3   8   4
  0.1194780350   9   3   9   1
  0.5284255044   9   3   9   3
  -0.8442249139   9   4   1   1
  0.1242838624   9   4   2   2
  -0.8955534387   9   4   3   1
  -0.2665700522   9   4   3   3
  0.6428145055   9   4   4   2
  -0.3690146081   9   4   4   4
  -0.7076008029   9   4   5   5
  0.3668906896   9   4   6   6
  0.9542414913   9   4   7   5
  -0.4803684245   9   4   7   7
  0.0820216822   9   4   8   1
  0.5847425177   9   4   8   3
  0.2129308777   9   4   8   8
  -0.1225619853   9   4   9   2
  0.9526542830   9   4   9   4
  -0.0587092106   9   5   5   2
  -0.0670834111   9   5   5   4
  0.0840144269   9   5   6   1
  -0.0939554292   9   5   6   3
  -0.1146102928   9   5   7   2
  0.0629255026   9   5   7   4
  0.0729996398   9   5   8   6
  0.1494231220   9   5   9   5
  0.0362216943   9   6   5   1
  -0.1112710237   9   6   5   3
  -0.1581068017   9   6   6   2
  0.0073431599   9   6   6   4
  0.1122035043   9   6   7   1
  -0.0576893551   9   6   7   3
  0.0844783098   9   6   8   5
  0.0566532918   9   6   8   7
  0.1139264749   9   6   9   6
  -0.0785419602   9   7   5   2
  0.0563849158   9   7   5   4
  0.0634143069   9   7   6   1
  -0.0652853351   9   7   6   3
  -0.0522046771   9   7   7   2
  -0.0365874777   9   7   7   4
  0.0650209163   9   7   8   6
  -0.0181993870   9   7   9   5
  0.1130289634   9   7   9   7
  -1.2908326796   9   8   2   1
  1.1706581455   9   8   3   2
  0.2887471603   9   8   4   1
  0.8727295437   9   8   4   3
  1.1519347317   9   8   6   5
  1.2926147498   9   8   7   6
  -0.1743311424   9   8   8   2
  1.2065105182   9   8   8   4
  -0.0144818170   9   8   9   1
  -0.2233514476   9   8   9   3
  1.3223914333   9   8   9   8
  4.6831716059   9   9   1   1
  4.0611506290   9   9   2   2
  0.5584427349   9   9   3   1
  4.1571082108   9   9   3   3
  -0.6047191938   9   9   4   2
  4.3572170383   9   9   4   4
  4.3784941032   9   9   5   5
  3.7183220720   9   9   6   6
  -0.5855811457   9   9   7   5
  4.2375348534   9   9   7   7
  0.1379481188   9   9   8   1
  -0.4755378430   9   9   8   3
  4.0299508649   9   9   8   8
  -0.0382446718   9   9   9   2
  -0.6118847497   9   9   9   4
  4.5494145800   9   9   9   9
  -0.1984201338   10   1   1   1
  -0.1519644778   10   1   2   2
  -0.0308167857   10   1   3   1
  -0.0652160532   10   1   3   3
  0.1482594228   10   1   4   2
  -0.2614869519   10   1   4   4
  0.0512153203   10   1   5   5
  0.0185186724   10   1   6   6
  -0.0291175522   10   1   7   5
  0.0444528561   10   1   7   7
  -0.1038790545   10   1   8   1
  0.0106489630   10   1   8   3
  -0.1728029067   10   1   8   8
  -0.0126637397   10   1   9   2
  0.0721674222   10   1   9   4
  -0.2279354275   10   1   9   9
  0.2539240307   10   1   10   1
  -0.0950129561   10   2   2   1
  -0.0503600362   10   2   3   2
  0.1854772538   10   2   4   1
  0.0983182861   10   2   4   3
  -0.0874603280   10   2   6   5
  -0.0988878379   10   2   7   6
  -0.0256423537   10   2   8   2
  0.0921291461   10   2   8   4
  -0.1302691318   10   2   9   1
  -0.0682113139   10   2   9   3
  0.0977677116   10   2   9   8
  0.1954281766   10   2   10   2
  -0.0084932774   10   3   1   1
  -0.1535269688   10   3   2   2
  0.1445210759   10   3   3   1
  0.0199343278   10   3   3   3
  0.0561451286   10   3   4   2
  0.0016972307   10   3   4   4
  0.0818802501   10   3   5   5
  -0.2244364715   10   3   6   6
  -0.2726965313   10   3   7   5
  0.0183561745   10   3   7   7
  -0.1533912159   10   3   8   1
  0.0454543570   10   3   8   3
  -0.0260842393   10   3   8   8
  0.1316011442   10   3   9   2
  -0.0136144175   10   3   9   4
  -0.0222339619   10   3   9   9
  0.0605681150   10   3   10   1
  0.1915882678   10   3   10   3
  0.3771102074   10   4   2   1
  -0.0220265138   10   4   3   2
  -0.4786053780   10   4   4   1
  -0.0838202516   10   4   4   3
  -0.1425685161   10   4   6   5
  -0.1575999640   10   4   7   6
  0.3646226701   10   4   8   2
  -0.0526564724   10   4   8   4
  0.0922953701   10   4   9   1
  0.4018408584   10   4   9   3
  -0.1976127324   10   4   9   8
  -0.1137165227   10   4   10   2
  0.4280159409   10   4   10   4
  0.3598023324   10   5   5   1
  0.1423849057   10   5   5   3
  -0.1987964349   10   5   6   2
  -0.0662124845   10   5   6   4
  -0.1504765834   10   5   7   1
  -0.3543456087   10   5   7   3
  -0.1354484027   10   5   8   5
  0.1364512394   10   5   8   7
  0.0522509755   10   5   9   6
  0.2980632851   10   5   10   5
  -0.2449050831   10   6   5   2
  -0.0866453219   10   6   5   4
  0.2402142222   10   6   6   1
  -0.3173329742   10   6   6   3
  -0.2832567329   10   6   7   2
  -0.0753413834   10   6   7   4
  0.0414406876   10   6   8   6
  0.0931929269   10   6   9   5
  0.0722471676   10   6   9   7
  0.2334679382   10   6   10   6
  -0.1661589290   10   7   5   1
  -0.4797339874   10   7   5   3
  -0.3402247740   10   7   6   2
  -0.0977743854   10   7   6   4
  0.4412910950   10   7   7   1
  0.0431588699   10   7   7   3
  0.1954093358   10   7   8   5
  -0.1100043187   10   7   8   7
  0.1149111225   10   7   9   6
  -0.1029448487   10   7   10   5
  0.3794129632   10   7   10   7
  -0.4915022264   10   8   1   1
  -0.0571912185   10   8   2   2
  -0.3905973783   10   8   3   1
  -0.1304607430   10   8   3   3
  0.4215349911   10   8   4   2
  -0.1767788522   10   8   4   4
  -0.3844119239   10   8   5   5
  0.1157468294   10   8   6   6
  0.4440121191   10   8   7   5
  -0.2783117308   10   8   7   7
  -0.1022196672   10   8   8   1
  0.3935189203   10   8   8   3
  0.0033341489   10   8   8   8
  0.0864121443   10   8   9   2
  0.4160551091   10   8   9   4
  -0.3280657079   10   8   9   9
  0.0464473375   10   8   10   1
  0.0000462266   10   8   10   3
  0.3353565385   10   8   10   8
  -0.5222592695   10   9   2   1
  0.4478073786   10   9   3   2
  0.1489194469   10   9   4   1
  0.4491221777   10   9   4   3
  0.4655335119   10   9   6   5
  0.5227036487   10   9   7   6
  0.0224592617   10   9   8   2
  0.4789490117   10   9   8   4
  -0.1293190751   10   9   9   1
  -0.0970073280   10   9   9   3
  0.5149753770   10   9   9   8
  0.0663314987   10   9   10   2
  -0.1240891854   10   9   10   4
  0.3575148022   10   9   10   9
  4.6831716059   10   10   1   1
  4.0611506290   10   10   2   2
  0.5584427349   10   10   3   1
  4.1571082108   10   10   3   3
  -0.6047191938   10   10   4   2
  4.3572170383   10   10   4   4
  4.3784941032   10   10   5   5
  3.7183220720   10   10   6   6
  -0.5855811457   10   10   7   5
  4.2375348534   10   10   7   7
  0.1379481188   10   10   8   1
  -0.4755378430   10   10   8   3
  4.0299508649   10   10   8   8
  -0.0382446718   10   10   9   2
  -0.6118847497   10   10   9   4
  4.5494145800   10   10   9   9
  -0.2279354275   10   10   10   1
  -0.0222339619   10   10   10   3
  -0.3280657079   10   10   10   8
  4.5494145800   10   10   10   10
  0.0869889476   11   1   2   1
  -0.0330667105   11   1   3   2
  -0.0695288773   11   1   4   1
  0.0129528726   11   1   4   3
  0.0280921774   11   1   6   5
  0.0312372873   11   1   7   6
  0.0966368760   11   1   8   2
  -0.1244391139   11   1   8   4
  -0.0534488970   11   1   9   1
  0.0020936562   11   1   9   3
  -0.1019254438   11   1   9   8
  -0.1220063790   11   1   10   2
  0.0593387207   11   1   10   4
  -0.0104226420   11   1   10   9
  0.1382323035   11   1   11   1
  0.1372807701   11   2   1   1
  0.0950824862   11   2   2   2
  0.0303414475   11   2   3   1
  0.0467397161   11   2   3   3
  -0.0974529917   11   2   4   2
  0.1827805398   11   2   4   4
  -0.0214450935   11   2   5   5
  -0.1132876736   11   2   6   6
  -0.0815698967   11   2   7   5
  -0.0408569780   11   2   7   7
  0.0691669804   11   2   8   1
  -0.0006207883   11   2   8   3
  0.2046198879   11   2   8   8
  0.0024742094   11   2   9   2
  0.0326477728   11   2   9   4
  0.1586949915   11   2   9   9
  -0.1622955952   11   2   10   1
  0.0806556809   11   2   10   3
  -0.0407443332   11   2   10   8
  0.1586949915   11   2   10   10
  0.2268569082   11   2   11   2
  0.0100428188   11   3   2   1
  -0.0615357250   11   3   3   2
  0.0616946690   11   3   4   1
  0.0812392308   11   3   4   3
  -0.1247521293   11   3   6   5
  -0.1409949750   11   3   7   6
  0.0738178577   11   3   8   2
  0.0574055612   11   3   8   4
  -0.1182251390   11   3   9   1
  0.0177359644   11   3   9   3
  0.0554603518   11   3   9   8
  0.1416673235   11   3   10   2
  0.0413934643   11   3   10   4
  0.0223776416   11   3   10   9
  -0.0782559570   11   3   11   1
  0.1680759613   11   3   11   3
  -0.1979313922   11   4   1   1
  -0.2236134495   11   4   2   2
  0.0430970422   11   4   3   1
  -0.0194797054   11   4   3   3
  0.2380691121   11   4   4   2
  -0.0424184956   11   4   4   4
  -0.0691373155   11   4   5   5
  -0.1889253233   11   4   6   6
  -0.1070923031   11   4   7   5
  -0.0931205820   11   4   7   7
  -0.2546663681   11   4   8   1
  0.2232302781   11   4   8   3
  -0.0978710652   11   4   8   8
  0.2373830412   11   4   9   2
  0.0613455479   11   4   9   4
  -0.1279892911   11   4   9   9
  0.0665303794   11   4   10   1
  0.1508134349   11   4   10   3
  0.1875270808   11   4   10   8
  -0.1279892911   11   4   10   10
  0.0063241718   11   4   11   2
  0.2828880986   11   4   11   4
  -0.2028543879   11   5   5   2
  -0.0386065248   11   5   5   4
  0.1822617820   11   5   6   1
  -0.2497843286   11   5   6   3
  -0.2041572617   11   5   7   2
  -0.1117102463   11   5   7   4
  -0.0001123501   11   5   8   6
  -0.0020195769   11   5   9   5
  0.0869055391   11   5   9   7
  0.1709166769   11   5   10   6
  0.1693867888   11   5   11   5
  0.1452934798   11   6   5   1
  -0.3181487892   11   6   5   3
  -0.4685641726   11   6   6   2
  -0.1714293300   11   6   6   4
  0.2688544761   11   6   7   1
  -0.2601629353   11   6   7   3
  0.0350485380   11   6   8   5
  -0.0180137165   11   6   8   7
  0.1118294910   11   6   9   6
  0.1456067529   11   6   10   5
  0.2464679978   11   6   10   7
  0.3423991391   11   6   11   6
  -0.2187876472   11   7   5   2
  -0.1305774574   11   7   5   4
  0.2244230612   11   7   6   1
  -0.3063979571   11   7   6   3
  -0.2790964146   11   7   7   2
  -0.0546794153   11   7   7   4
  0.0102407621   11   7   8   6
  0.1201155130   11   7   9   5
  0.0086751427   11   7   9   7
  0.2125352745   11   7   10   6
  0.1307843295   11   7   11   5
  0.2297953339   11   7   11   7
  0.1594189850   11   8   2   1
  0.1372805256   11   8   3   2
  -0.3829308518   11   8   4   1
  0.1650249523   11   8   4   3
  0.0378673311   11   8   6   5
  0.0451304660   11   8   7   6
  0.4296862108   11   8   8   2
  0.1401210011   11   8   8   4
  -0.0483611218   11   8   9   1
  0.3519422507   11   8   9   3
  0.0038998578   11   8   9   8
  -0.0555338946   11   8   10   2
  0.3403381985   11   8   10   4
  0.1160044311   11   8   10   9
  0.0659559326   11   8   11   1
  0.0605416637   11   8   11   3
  0.4509395544   11   8   11   8
  -0.4915022264   11   9   1   1
  -0.0571912185   11   9   2   2
  -0.3905973783   11   9   3   1
  -0.1304607430   11   9   3   3
  0.4215349911   11   9   4   2
  -0.1767788522   11   9   4   4
  -0.3844119239   11   9   5   5
  0.1157468294   11   9   6   6
  0.4440121191   11   9   7   5
  -0.2783117308   11   9   7   7
  -0.1022196672   11   9   8   1
  0.3935189203   11   9   8   3
  0.0033341489   11   9   8   8
  0.0864121443   11   9   9   2
  0.4160551091   11   9   9   4
  -0.3280657079   11   9   9   9
  0.0464473375   11   9   10   1
  0.0000462266   11   9   10   3
  0.3353565385   11   9   10   8
  -0.3280657079   11   9   10   10
  -0.0407443332   11   9   11   2
  0.1875270808   11   9   11   4
  0.3353565385   11   9   11   9
  -1.2908326796   11   10   2   1
  1.1706581455   11   10   3   2
  0.2887471603   11   10   4   1
  0.8727295437   11   10   4   3
  1.1519347317   11   10   6   5
  1.2926147498   11   10   7   6
  -0.1743311424   11   10   8   2
  1.2065105182   11   10   8   4
  -0.0144818170   11   10   9   1
  -0.2233514476   11   10   9   3
  1.3223914333   11   10   9   8
  0.0977677116   11   10   10   2
  -0.1976127324   11   10   10   4
  0.5149753770   11   10   10   9
  -0.1019254438   11   10   11   1
  0.0554603518   11   10   11   3
  0.0038998578   11   10   11   8
  1.3223914333   11   10   11   10
  3.9733472855   11   11   1   1
  4.1814321150   11   11   2   2
  -0.2105795673   11   11   3   1
  3.9307976692   11   11   3   3
  -0.0677685885   11   11   4   2
  4.0477293563   11   11   4   4
  3.7782942262   11   11   5   5
  4.0310530507   11   11   6   6
  0.2251259758   11   11   7   5
  3.8305042917   11   11   7   7
  0.2234270991   11   11   8   1
  0.0157545225   11   11   8   3
  4.2311077009   11   11   8   8
  -0.1562183537   11   11   9   2
  0.2129308777   11   11   9   4
  4.0299508649   11   11   9   9
  -0.1728029067   11   11   10   1
  -0.0260842393   11   11   10   3
  0.0033341489   11   11   10   8
  4.0299508649   11   11   10   10
  0.2046198879   11   11   11   2
  -0.0978710652   11   11   11   4
  0.0033341489   11   11   11   9
  4.2311077009   11   11   11   11
  0.0382440299   12   1   5   2
  -0.0911280882   12   1   5   4
  -0.0197278344   12   1   6   1
  0.0042877777   12   1   6   3
  -0.0049427474   12   1   7   2
  0.0305226596   12   1   7   4
  -0.0667089551   12   1   8   6
  0.0497266106   12   1   9   5
  -0.1223900302   12   1   9   7
  -0.0315955251   12   1   10   6
  -0.0677229555   12   1   11   5
  0.0423998732   12   1   11   7
  0.1443134401   12   1   12   1
  0.0646939769   12   2   5   1
  0.0475784772   12   2   5   3
  -0.0229177420   12   2   6   2
  0.0712446791   12   2   6   4
  -0.0258262710   12   2   7   1
  -0.0363591015   12   2   7   3
  0.0519232011   12   2   8   5
  0.1094516877   12   2   8   7
  0.0978521905   12   2   9   6
  0.0686400510   12   2   10   5
  -0.0006908066   12   2   10   7
  0.0123936555   12   2   11   6
  0.1282363610   12   2   12   2
  0.0364958449   12   3   5   2
  -0.0144501821   12   3   5   4
  -0.0035096885   12   3   6   1
  0.0386520433   12   3   6   3
  -0.0077929827   12   3   7   2
  0.1243670225   12   3   7   4
  0.1116781897   12   3   8   6
  0.1497982501   12   3   9   5
  -0.0194916671   12   3   9   7
  0.0187074849   12   3   10   6
  -0.0731785453   12   3   11   5
  0.0412756589   12   3   11   7
  0.0346313466   12   3   12   1
  0.1986692473   12   3   12   3
  -0.2626791869   12   4   5   1
  -0.0577429737   12   4   5   3
  0.1875628916   12   4   6   2
  0.1064159724   12   4   6   4
  0.0803756819   12   4   7   1
  0.2841545432   12   4   7   3
  0.1318158050   12   4   8   5
  -0.0471347942   12   4   8   7
  0.0012616369   12   4   9   6
  -0.2117993650   12   4   10   5
  0.0584238354   12   4   10   7
  -0.1396747673   12   4   11   6
  0.0137930116   12   4   12   2
  0.1875563982   12   4   12   4
  0.3247998212   12   5   2   1
  -0.0116215641   12   5   3   2
  -0.4328516936   12   5   4   1
  -0.1064386795   12   5   4   3
  -0.1201889556   12   5   6   5
  -0.1294652960   12   5   7   6
  0.3043697598   12   5   8   2
  -0.0038159800   12   5   8   4
  0.1282444445   12   5   9   1
  0.4162793029   12   5   9   3
  -0.2394738765   12   5   9   8
  -0.0384589886   12   5   10   2
  0.2102211177   12   5   10   4
  -0.0727344273   12   5   10   9
  -0.0275159838   12   5   11   1
  -0.0505177767   12   5   11   3
  0.1923535940   12   5   11   8
  -0.2394738765   12   5   11   10
  0.4348894932   12   5   12   5
  -0.3058399976   12   6   1   1
  -0.1484555711   12   6   2   2
  -0.1310241780   12   6   3   1
  -0.0568626763   12   6   3   3
  0.3188692193   12   6   4   2
  -0.0554006814   12   6   4   4
  -0.2003651776   12   6   5   5
  -0.0426253725   12   6   6   6
  0.1385979612   12   6   7   5
  -0.1641780112   12   6   7   7
  -0.2047322091   12   6   8   1
  0.3302405984   12   6   8   3
  -0.0744148910   12   6   8   8
  0.2162526080   12   6   9   2
  0.1907190254   12   6   9   4
  -0.2463996522   12   6   9   9
  0.0087992910   12   6   10   1
  0.0660944888   12   6   10   3
  0.1201647004   12   6   10   8
  -0.2463996522   12   6   10   10
  -0.0152566972   12   6   11   2
  0.1082130670   12   6   11   4
  0.1201647004   12   6   11   9
  -0.0744148910   12   6   11   11
  0.2993981922   12   6   12   6
  -0.1835293429   12   7   2   1
  0.1330789523   12   7   3   2
  0.0866601478   12   7   4   1
  0.3391138410   12   7   4   3
  0.1533593193   12   7   6   5
  0.1714281025   12   7   7   6
  0.1843965861   12   7   8   2
  0.1788413899   12   7   8   4
  -0.2561723584   12   7   9   1
  -0.0379094497   12   7   9   3
  0.2065852068   12   7   9   8
  0.0630372383   12   7   10   2
  -0.0108410880   12   7   10   4
  0.0725834133   12   7   10   9
  0.0541530531   12   7   11   1
  0.0788977056   12   7   11   3
  0.0197076795   12   7   11   8
  0.2065852068   12   7   11   10
  -0.0819817254   12   7   12   5
  0.3174677017   12   7   12   7
  0.2187876472   12   8   5   2
  0.1305774574   12   8   5   4
  -0.2244230612   12   8   6   1
  0.3063979571   12   8   6   3
  0.2790964146   12   8   7   2
  0.0546794153   12   8   7   4
  -0.0102407621   12   8   8   6
  -0.1201155130   12   8   9   5
  -0.0086751427   12   8   9   7
  -0.2125352745   12   8   10   6
  -0.1307843295   12   8   11   5
  -0.2297953339   12   8   11   7
  -0.0423998732   12   8   12   1
  -0.0412756589   12   8   12   3
  0.2297953339   12   8   12   8
  0.1661589290   12   9   5   1
  0.4797339874   12   9   5   3
  0.3402247740   12   9   6   2
  0.0977743854   12   9   6   4
  -0.4412910950   12   9   7   1
  -0.0431588699   12   9   7   3
  -0.1954093358   12   9   8   5
  0.1100043187   12   9   8   7
  -0.1149111225   12   9   9   6
  0.1029448487   12   9   10   5
  -0.3794129632   12   9   10   7
  -0.2464679978   12   9   11   6
  0.0006908066   12   9   12   2
  -0.0584238354   12   9   12   4
  0.3794129632   12   9   12   9
  0.0785419602   12   10   5   2
  -0.0563849158   12   10   5   4
  -0.0634143069   12   10   6   1
  0.0652853351   12   10   6   3
  0.0522046771   12   10   7   2
  0.0365874777   12   10   7   4
  -0.0650209163   12   10   8   6
  0.0181993870   12   10   9   5
  -0.1130289634   12   10   9   7
  -0.0722471676   12   10   10   6
  -0.0869055391   12   10   11   5
  -0.0086751427   12   10   11   7
  0.1223900302   12   10   12   1
  0.0194916671   12   10   12   3
  0.0086751427   12   10   12   8
  0.1130289634   12   10   12   10
  -0.1609837995   12   11   5   1
  -0.1762540878   12   11   5   3
  -0.0210123215   12   11   6   2
  -0.0618821210   12   11   6   4
  0.1528569611   12   11   7   1
  0.1102449586   12   11   7   3
  0.0349231081   12   11   8   5
  -0.1349528004   12   11   8   7
  -0.0566532918   12   11   9   6
  -0.1364512394   12   11   10   5
  0.1100043187   12   11   10   7
  0.0180137165   12   11   11   6
  -0.1094516877   12   11   12   2
  0.0471347942   12   11   12   4
  -0.1100043187   12   11   12   9
  0.1349528004   12   11   12   11
  4.4003422389   12   12   1   1
  3.9004487860   12   12   2   2
  0.4590468230   12   12   3   1
  4.0667324258   12   12   3   3
  -0.3872895458   12   12   4   2
  4.0502865357   12   12   4   4
  4.3794026031   12   12   5   5
  3.7864143436   12   12   6   6
  -0.5263017206   12   12   7   5
  4.2533839375   12   12   7   7
  0.0200443168   12   12   8   1
  -0.4068866640   12   12   8   3
  3.8305042917   12   12   8   8
  -0.0435155779   12   12   9   2
  -0.4803684245   12   12   9   4
  4.2375348534   12   12   9   9
  0.0444528561   12   12   10   1
  0.0183561745   12   12   10   3
  -0.2783117308   12   12   10   8
  4.2375348534   12   12   10   10
  -0.0408569780   12   12   11   2
  -0.0931205820   12   12   11   4
  -0.2783117308   12   12   11   9
  3.8305042917   12   12   11   11
  -0.1641780112   12   12   12   6
  4.2533839375   12   12   12   12
  0.0080441106   13   1   5   1
  -0.0520263520   13   1   5   3
  -0.0703210942   13   1   6   2
  0.0437759513   13   1   6   4
  0.0633529565   13   1   7   1
  -0.0068652913   13   1   7   3
  0.0827789074   13   1   8   5
  0.0641307393   13   1   8   7
  0.0980200696   13   1   9   6
  0.0250919636   13   1   10   5