 &FCI NORB= 22,NELEC= ,MS0= ,
  ORBSYM=1,3,1,3,1,1,3,3,1,1,1,3,1,3,1,3,1,3,1,1,3,1,
  ISYM=1,
 /
  -94.8599037907479356590556563   1   1   0   0
  -87.7050968674740687447410892   2   2   0   0
  0.0000000168163996061565513   3   1   0   0
  -87.7050965313189863081788644   3   3   0   0
  -2.5042905097958052529349970   4   2   0   0
  -0.0000003282273912663669080   4   3   0   0
  -84.0152015440290114156596246   4   4   0   0
  -0.0000006454078146367336899   5   1   0   0
  0.0000003282274010363295247   5   2   0   0
  -2.5042905149938117226326995   5   3   0   0
  -84.0152013904682064548978815   5   5   0   0
  -8.0195491656203632402366566   6   1   0   0
  0.0000000870894099058716620   6   3   0   0
  -0.0000000727447801995850796   6   5   0   0
  -84.9603546538373421981305000   6   6   0   0
  -0.0000001764860396982400084   7   2   0   0
  -0.0000001417711286924135617   7   4   0   0
  -81.5073101971505309393251082   7   7   0   0
  7.4884426446173275593309882   8   2   0   0
  0.0000001374941034359977721   8   3   0   0
  -3.3009335399814219158542983   8   4   0   0
  0.0000003720323575873152322   8   5   0   0
  0.0000002216763906053800237   8   7   0   0
  -86.3089475680858697614894481   8   8   0   0
  -0.0000003525797231951344202   9   1   0   0
  -0.0000001374940685749947988   9   2   0   0
  7.4884425658618374299635434   9   3   0   0
  -0.0000003720323200617769999   9   4   0   0
  -3.3009337889373200347620241   9   5   0   0
  -0.0000011204304377621099320   9   6   0   0
  -86.3089478456480776458192850   9   9   0   0
  -1.8109100229124486247656023   10   1   0   0
  -0.0000012119047891889778157   10   3   0   0
  0.0000002254752703434448335   10   5   0   0
  -7.3752447177861579774571510   10   6   0   0
  0.0000001915942828834005240   10   9   0   0
  -86.1697921608423769157525385   10   10   0   0
  -0.0000000835293092055211517   11   1   0   0
  -0.0000006206252492757524664   11   2   0   0
  1.5911887519772767163317440   11   3   0   0
  0.0000007039128151475892992   11   4   0   0
  -2.7180962442205558460273096   11   5   0   0
  0.0000003740931229789801193   11   6   0   0
  0.0000016610809102923784764   11   8   0   0
  -4.4691405989839561030407822   11   9   0   0
  0.0000009508914147193792132   11   10   0   0
  -79.8562733734614198510826100   11   11   0   0
  1.5911886356136228926061449   12   2   0   0
  0.0000006206253145568663143   12   3   0   0
  -2.7180963895270897623390738   12   4   0   0
  -0.0000007039128054053822581   12   5   0   0
  0.0000003021846819228953984   12   7   0   0
  -4.4691407888644221202412155   12   8   0   0
  -0.0000016610808895312079159   12   9   0   0
  -79.8562733944629599136533216   12   12   0   0
  0.5896252027653530181083852   13   1   0   0
  -0.0000000254876897365363675   13   3   0   0
  -0.0000003774641221809815761   13   5   0   0
  -4.5233410259452870860741314   13   6   0   0
  -0.0000005613278841742896930   13   9   0   0
  -2.8000417460260047519682303   13   10   0   0
  -0.0000000295682372752903433   13   11   0   0
  -83.0122406306094120509442291   13   13   0   0
  -0.0000000204335143394895481   14   2   0   0
  0.0000000202144443192964024   14   4   0   0
  -7.0363508874657112457384756   14   7   0   0
  -0.0000002578634059836435569   14   8   0   0
  -0.0000002006147013563730197   14   12   0   0
  -81.2240795347306203666448710   14   14   0   0
  0.0000000311589987145310943   15   1   0   0
  -0.0000001175412620568749844   15   2   0   0
  0.6440995369820288196649472   15   3   0   0
  -0.0000001272622052184146924   15   4   0   0
  2.4747972131758744218643642   15   5   0   0
  -0.0000002550473960916121996   15   6   0   0
  0.0000006312757747650721285   15   8   0   0
  -3.8462292007256806414261519   15   9   0   0
  0.0000006184680689802490861   15   10   0   0
  -3.4847441568097203834497577   15   11   0   0
  -0.0000007232566737180867733   15   12   0   0
  -0.0000002549694935183310918   15   13   0   0
  -79.6324063314511505495829624   15   15   0   0
  0.6440994789352920690816973   16   2   0   0
  0.0000001175413064657959694   16   3   0   0
  2.4747971497499925419560896   16   4   0   0
  0.0000001272622442982651592   16   5   0   0
  0.0000002095277213679230169   16   7   0   0
  -3.8462291892989304287198138   16   8   0   0
  -0.0000006312757587778605739   16   9   0   0
  0.0000007232567248993682085   16   11   0   0
  -3.4847442379457715944113261   16   12   0   0
  -0.0000001694507955946763656   16   14   0   0
  -79.6324062096660156839789124   16   16   0   0
  -0.0000000106519871811983080   17   1   0   0
  0.0000001270344336390394346   17   2   0   0
  -1.6187647391939741225996841   17   3   0   0
  -0.0000001900152026834689423   17   4   0   0
  -3.6131524938476635711026574   17   5   0   0
  0.0000002522495607948371799   17   6   0   0
  0.0000001471065762537193677   17   8   0   0
  -2.4470727354205124015606998   17   9   0   0
  0.0000004554513599597243001   17   10   0   0
  1.9772791454006155564826486   17   11   0   0
  0.0000006160462413806744308   17   12   0   0
  0.0000003234546082087064178   17   13   0   0
  4.1290399579590726375499798   17   15   0   0
  0.0000004294745052924042739   17   16   0   0
  -77.9268945680812379350754782   17   17   0   0
  -1.6187647064416292863597846   18   2   0   0
  -0.0000001270344314185933854   18   3   0   0
  -3.6131522886420013307429144   18   4   0   0
  0.0000001900151902489710665   18   5   0   0
  -2.4470727752253358389111781   18   8   0   0
  -0.0000001471065500524559866   18   9   0   0
  -0.0000006160462741044980817   18   11   0   0
  1.9772792315470280044564788   18   12   0   0
  -0.0000000441122587923884706   18   14   0   0
  -0.0000004294744568866804002   18   15   0   0
  4.1290397319109928275793209   18   16   0   0
  -77.9268946207377553037076723   18   18   0   0
  -0.6467123253128266302525162   19   1   0   0
  -0.0000000250689653480407060   19   3   0   0
  0.0000001381136498501689402   19   5   0   0
  0.3772552642372080100585663   19   6   0   0
  0.0000004269362254838426907   19   9   0   0
  2.6741163952834878791975370   19   10   0   0
  -0.0000001013453779230566454   19   11   0   0
  9.0596352385779930216358480   19   13   0   0
  -0.0000001693529316781905436   19   15   0   0
  -0.0000000887764579626804107   19   17   0   0
  -77.5963947197435999214576441   19   19   0   0
  0.0000004221892999645149303   20   2   0   0
  -1.5315993117239696807985183   20   3   0   0
  0.0000001601598706990614573   20   4   0   0
  -1.1077094463884695763056243   20   5   0   0
  0.0000001212725659893720831   20   6   0   0
  0.0000004325444391550803402   20   8   0   0
  -1.6811440245359727807539230   20   9   0   0
  0.0000001858301003077045266   20   10   0   0
  -0.8417606462294373592669672   20   11   0   0
  -0.0000000962857903685776506   20   12   0   0
  -0.0000000458049398410764752   20   13   0   0
  -7.3143332401925835739575632   20   15   0   0
  0.0000006814271089616852350   20   16   0   0
  -2.9157344613914890629757792   20   17   0   0
  0.0000005749140221666948491   20   18   0   0
  0.0000000823163117669167832   20   19   0   0
  -78.0376807073209590726037277   20   20   0   0
  -1.5315992973310210700788048   21   2   0   0
  -0.0000004221892928590875727   21   3   0   0
  -1.1077094867724333049352481   21   4   0   0
  -0.0000001601599004530385173   21   5   0   0
  -0.0000000210948836176065134   21   7   0   0
  -1.6811440048475634334579354   21   8   0   0
  -0.0000004325444651342991165   21   9   0   0
  0.0000000962857715502973832   21   11   0   0
  -0.8417605892606114803555784   21   12   0   0
  -0.0000002826888039580738822   21   14   0   0
  -0.0000006814270481214634856   21   15   0   0
  -7.3143332880785454364058751   21   16   0   0
  -0.0000005749140543631625633   21   17   0   0
  -2.9157344952655930292451103   21   18   0   0
  -78.0376810171866566179232905   21   21   0   0
  1.0450732449830413273161867   22   1   0   0
  -0.0000000723913545774834688   22   5   0   0
  -1.0984698638844143658843677   22   6   0   0
  -0.0000000653656220261922272   22   9   0   0
  -0.6546658970943606270509463   22   10   0   0
  -0.0000001025238072216438923   22   11   0   0
  1.2922642138456477134411671   22   13   0   0
  -0.0000000781904967439572829   22   15   0   0
  -0.0000000514427185294152878   22   17   0   0
  -7.6371406659287943696767798   22   19   0   0
  -83.2002283797604320625396213   22   22   0   0
  5.0695808554   1   1   1   1
  1.0109515458   2   1   2   1
  4.5047399582   2   2   1   1
  0.0000000928   2   2   2   1
  4.6101640947   2   2   2   2
  -0.3155671705   3   1   2   2
  1.0109515145   3   1   3   1
  -0.3155671742   3   2   2   1
  -0.0000000928   3   2   3   1
  0.3401396723   3   2   3   2
  4.5047399260   3   3   1   1
  -0.0000000928   3   3   2   1
  3.9298847709   3   3   2   2
  0.3155671666   3   3   3   1
  4.6101640696   3   3   3   3
  0.1191800277   4   1   2   1
  -0.0000000443   4   1   2   2
  0.0000000156   4   1   3   1
  0.2718962371   4   1   3   2
  0.0000000443   4   1   3   3
  0.4103948626   4   1   4   1
  0.2236500180   4   2   1   1
  -0.0000001133   4   2   2   1
  -0.0089371265   4   2   2   2
  0.6951957436   4   2   3   1
  -0.0000000180   4   2   3   2
  0.2655212416   4   2   3   3
  0.7188603568   4   2   4   2
  0.0000000293   4   3   1   1
  0.6951957562   4   3   2   1
  0.0000000348   4   3   2   2
  0.0000001133   4   3   3   1
  -0.1372291796   4   3   3   2
  0.1893966764   4   3   4   1
  0.7525446547   4   3   4   3
  4.3113673927   4   4   1   1
  4.0994933008   4   4   2   2
  0.2795424846   4   4   3   1
  -0.0000000217   4   4   3   2
  4.2650313869   4   4   3   3
  0.3033928815   4   4   4   2
  0.0000000398   4   4   4   3
  4.3552382702   4   4   4   4
  0.0000000603   5   1   1   1
  -0.0000000156   5   1   2   1
  0.2718962440   5   1   2   2
  0.1191800282   5   1   3   1
  0.0000000443   5   1   3   2
  -0.2718961961   5   1   3   3
  0.1893966780   5   1   4   2
  0.0339012338   5   1   4   4
  0.4103948478   5   1   5   1
  -0.0000000293   5   2   1   1
  0.6951957015   5   2   2   1
  0.0000001133   5   2   3   1
  -0.1372291600   5   2   3   2
  -0.0000000348   5   2   3   3
  0.1893966722   5   2   4   1
  0.3611087606   5   2   4   3
  0.7525445609   5   2   5   2
  0.2236500198   5   3   1   1
  0.0000001133   5   3   2   1
  0.2655212586   5   3   2   2
  -0.6951957588   5   3   3   1
  0.0000000180   5   3   3   2
  -0.0089371383   5   3   3   3
  -0.3947930973   5   3   4   2
  -0.0090005772   5   3   4   4
  -0.1893966564   5   3   5   1
  0.7188603952   5   3   5   3
  0.2795424989   5   4   2   1
  0.0000000217   5   4   2   2
  -0.0827690657   5   4   3   2
  -0.0000000217   5   4   3   3
  0.0339012017   5   4   4   1
  -0.0000000205   5   4   4   2
  0.1561967363   5   4   4   3
  0.1561967220   5   4   5   2
  0.0000000205   5   4   5   3
  0.1955347076   5   4   5   4
  4.3113673856   5   5   1   1
  4.2650313402   5   5   2   2
  -0.2795424523   5   5   3   1
  0.0000000217   5   5   3   2
  4.0994933272   5   5   3   3
  -0.0090005658   5   5   4   2
  3.9641688674   5   5   4   4
  -0.0339012461   5   5   5   1
  -0.0000000398   5   5   5   2
  0.3033928611   5   5   5   3
  4.3552382344   5   5   5   5
  0.7435967955   6   1   1   1
  0.3110969679   6   1   2   2
  0.3110969882   6   1   3   3
  0.1217515670   6   1   4   2
  0.0000000160   6   1   4   3
  0.1690731303   6   1   4   4
  0.0000000172   6   1   5   1
  -0.0000000160   6   1   5   2
  0.1217515848   6   1   5   3
  0.1690731352   6   1   5   5
  0.5673424524   6   1   6   1
  -0.4362969746   6   2   2   1
  -0.0000000690   6   2   2   2
  0.2346276808   6   2   3   2
  0.0000000690   6   2   3   3
  0.0628622860   6   2   4   1
  0.0000000622   6   2   4   2
  -0.3815658911   6   2   4   3
  -0.3815658682   6   2   5   2
  -0.0000000622   6   2   5   3
  -0.0506552172   6   2   5   4
  0.4791502255   6   2   6   2
  0.2346276570   6   3   2   2
  -0.4362968933   6   3   3   1
  0.0000000690   6   3   3   2
  -0.2346276692   6   3   3   3
  -0.3815658461   6   3   4   2
  -0.0000000622   6   3   4   3
  -0.0506551938   6   3   4   4
  0.0628623035   6   3   5   1
  -0.0000000622   6   3   5   2
  0.3815658527   6   3   5   3
  0.0506551344   6   3   5   5
  0.4791501335   6   3   6   3
  0.2601249286   6   4   2   1
  0.0000000493   6   4   2   2
  0.0000000341   6   4   3   1
  -0.3023038114   6   4   3   2
  -0.0000000493   6   4   3   3
  -0.2478587778   6   4   4   1
  0.1598900619   6   4   4   3
  0.1598900396   6   4   5   2
  0.0716866292   6   4   5   4
  -0.3255634851   6   4   6   2
  -0.0000000427   6   4   6   3
  0.3761770979   6   4   6   4
  -0.0000000341   6   5   2   1
  -0.3023038118   6   5   2   2
  0.2601249632   6   5   3   1
  -0.0000000493   6   5   3   2
  0.3023038135   6   5   3   3
  0.1598900786   6   5   4   2
  0.0716866231   6   5   4   4
  -0.2478587639   6   5   5   1
  -0.1598901180   6   5   5   3
  -0.0716865881   6   5   5   5
  0.0000000325   6   5   6   1
  0.0000000427   6   5   6   2
  -0.3255634754   6   5   6   3
  0.3761771176   6   5   6   5
  4.4584486634   6   6   1   1
  4.1518451404   6   6   2   2
  -0.0000000364   6   6   3   1
  4.1518450447   6   6   3   3
  -0.0328257437   6   6   4   2
  4.0031417725   6   6   4   4
  0.0000000656   6   6   5   1
  -0.0328257009   6   6   5   3
  4.0031417928   6   6   5   5
  0.4044390725   6   6   6   1
  0.0000000519   6   6   6   3
  -0.0000000294   6   6   6   5
  4.3659288448   6   6   6   6
  0.0000000272   7   1   4   2
  -0.2076202937   7   1   4   3
  0.2076202910   7   1   5   2
  0.0000000272   7   1   5   3
  0.2202486904   7   1   7   1
  0.0000000174   7   2   1   1
  0.2641184018   7   2   2   2
  0.0308143022   7   2   3   1
  0.0000000777   7   2   3   2
  -0.2641183954   7   2   3   3
  0.0000000471   7   2   4   1
  0.1480249526   7   2   4   2
  0.0000000241   7   2   4   3
  -0.1073989869   7   2   4   4
  0.3592363449   7   2   5   1
  0.0000000241   7   2   5   2
  -0.1480249477   7   2   5   3
  0.1073989503   7   2   5   5
  0.0327376143   7   2   6   3
  -0.0000000343   7   2   6   4
  -0.2614425116   7   2   6   5
  0.0000000448   7   2   6   6
  0.4402864685   7   2   7   2
  -0.0308143012   7   3   2   1
  0.0000000777   7   3   2   2
  -0.2641184138   7   3   3   2
  -0.0000000777   7   3   3   3
  -0.3592363578   7   3   4   1
  0.0000000241   7   3   4   2
  -0.1480249561   7   3   4   3
  0.0000000471   7   3   5   1
  -0.1480249542   7   3   5   2
  -0.0000000241   7   3   5   3
  0.1073990086   7   3   5   4
  -0.0327376020   7   3   6   2
  0.2614425086   7   3   6   4
  -0.0000000343   7   3   6   5
  0.4402864826   7   3   7   3
  0.0000000125   7   4   1   1
  0.0000001083   7   4   2   1
  0.2890856522   7   4   2   2
  -0.8264727253   7   4   3   1
  0.0000000471   7   4   3   2
  -0.2890856370   7   4   3   3
  -0.6148406014   7   4   4   2
  -0.0000000196   7   4   4   3
  -0.1525803091   7   4   4   4
  -0.0658165624   7   4   5   1
  -0.0000000196   7   4   5   2
  0.6148406272   7   4   5   3
  0.0000000151   7   4   5   4
  0.1525802867   7   4   5   5
  -0.0000000638   7   4   6   2
  0.4868230345   7   4   6   3
  -0.2405534525   7   4   6   5
  0.0000000373   7   4   6   6
  -0.0833797847   7   4   7   2
  -0.0000000109   7   4   7   3
  0.8186406832   7   4   7   4
  0.8264727369   7   5   2   1
  0.0000000471   7   5   2   2
  0.0000001083   7   5   3   1
  -0.2890856482   7   5   3   2
  -0.0000000471   7   5   3   3
  0.0658165560   7   5   4   1
  -0.0000000196   7   5   4   2
  0.6148406200   7   5   4   3
  0.0000000151   7   5   4   4
  0.6148405368   7   5   5   2
  0.0000000196   7   5   5   3
  0.1525803213   7   5   5   4
  -0.0000000151   7   5   5   5
  -0.4868231048   7   5   6   2
  -0.0000000638   7   5   6   3
  0.2405534335   7   5   6   4
  -0.0000000158   7   5   7   1
  0.0000000109   7   5   7   2
  -0.0833797802   7   5   7   3
  0.8186406828   7   5   7   5
  -0.0000000371   7   6   2   1
  0.0000000143   7   6   3   2
  -0.0000000253   7   6   4   2
  0.1931043201   7   6   4   3
  -0.1931043790   7   6   5   2
  -0.0000000253   7   6   5   3
  0.0000000395   7   6   6   2
  -0.0000000169   7   6   6   4
  -0.2044830331   7   6   7   1
  -0.0000000218   7   6   7   5
  0.2510007672   7   6   7   6
  4.1859682466   7   7   1   1
  4.1312463892   7   7   2   2
  4.1312463813   7   7   3   3
  0.0123731163   7   7   4   2
  4.0823111765   7   7   4   4
  0.0123731276   7   7   5   3
  4.0823111695   7   7   5   5
  0.0752158211   7   7   6   1
  4.0496171546   7   7   6   6
  0.0000000119   7   7   7   4
  4.1796497456   7   7   7   7
  -0.2671873190   8   1   2   1
  -0.0000000385   8   1   2   2
  0.1397952694   8   1   3   2
  0.0000000385   8   1   3   3
  0.0533122846   8   1   4   1
  -0.0475949861   8   1   4   3
  -0.0475949905   8   1   5   2
  -0.1490526149   8   1   5   4
  -0.1183435651   8   1   6   2
  0.0049994123   8   1   6   4
  -0.1298143126   8   1   7   3
  -0.0000000113   8   1   7   4
  -0.1001898629   8   1   7   5
  0.3492294671   8   1   8   1
  -0.6510629781   8   2   1   1
  -0.0000000468   8   2   2   1
  -0.3054585720   8   2   2   2
  0.1699254631   8   2   3   1
  -0.3496456860   8   2   3   3
  -0.0000000161   8   2   4   1
  -0.0925737749   8   2   4   2
  -0.0000000331   8   2   4   3
  -0.1750716014   8   2   4   4
  0.1111047968   8   2   5   1
  0.0000000155   8   2   5   2
  -0.2486416583   8   2   5   3
  -0.0000000131   8   2   5   4
  -0.2823596290   8   2   5   5
  -0.4267585609   8   2   6   1
  -0.0000000280   8   2   6   2
  0.1016980488   8   2   6   3
  0.0000000190   8   2   6   4
  -0.1315557591   8   2   6   5
  -0.2400805232   8   2   6   6
  0.0971868778   8   2   7   2
  0.0000000268   8   2   7   3
  -0.1083292228   8   2   7   4
  -0.0000000157   8   2   7   5
  -0.1116792077   8   2   7   7
  0.0000000445   8   2   8   1
  0.5686102571   8   2   8   2
  -0.0000000120   8   3   1   1
  0.1699254740   8   3   2   1
  0.0000000468   8   3   3   1
  0.0220935614   8   3   3   2
  0.1111048286   8   3   4   1
  0.1838840591   8   3   4   3
  0.0000000161   8   3   5   1
  -0.0278161535   8   3   5   2
  -0.0000000258   8   3   5   3
  0.0536440032   8   3   5   4
  -0.0000000173   8   3   5   5
  0.1016980344   8   3   6   2
  0.0000000280   8   3   6   3
  -0.1315557565   8   3   6   4
  -0.0000000190   8   3   6   5
  -0.1123318223   8   3   7   1
  0.0000000268   8   3   7   2
  -0.0971868854   8   3   7   3
  -0.0000000157   8   3   7   4
  0.1083292287   8   3   7   5
  0.0970483023   8   3   7   6
  -0.1728000727   8   3   8   1
  0.2218258300   8   3   8   3
  0.2725918328   8   4   1   1
  -0.0000000380   8   4   2   1
  -0.0818128202   8   4   2   2
  0.2624279467   8   4   3   1
  -0.0000000352   8   4   3   2
  0.3893632704   8   4   3   3
  0.2563539823   8   4   4   2
  0.1614390077   8   4   4   4
  -0.1612864141   8   4   5   1
  -0.0966370756   8   4   5   3
  0.0781741684   8   4   5   5
  0.1565418080   8   4   6   1
  0.0000000404   8   4   6   2
  -0.2794681754   8   4   6   3
  0.2520330577   8   4   6   5
  0.0802143334   8   4   6   6
  -0.1372602005   8   4   7   2
  -0.0000000199   8   4   7   3
  -0.2884431633   8   4   7   4
  -0.0000000113   8   4   7   6
  0.0904838087   8   4   7   7
  -0.2272839358   8   4   8   2
  -0.0000000127   8   4   8   3
  0.2955024834   8   4   8   4
  -0.0000000307   8   5   1   1
  0.2624279155   8   5   2   1
  0.0000000179   8   5   2   2
  0.0000000380   8   5   3   1
  -0.2355880388   8   5   3   2
  -0.0000000525   8   5   3   3
  -0.1612864299   8   5   4   1
  0.1332401068   8   5   4   3
  0.2197508686   8   5   5   2
  0.0416324423   8   5   5   4
  -0.0000000182   8   5   5   5
  -0.0000000176   8   5   6   1
  -0.2794681820   8   5   6   2
  -0.0000000404   8   5   6   3
  0.2520330438   8   5   6   4
  0.0455391422   8   5   7   1
  -0.0000000199   8   5   7   2
  0.1372602065   8   5   7   3
  0.2884431343   8   5   7   5
  -0.1001741291   8   5   7   6
  -0.0000000102   8   5   7   7
  -0.0014019847   8   5   8   1
  0.0000000270   8   5   8   2
  -0.0758973331   8   5   8   3
  0.2759201966   8   5   8   5
  -0.7905488013   8   6   2   1
  -0.0000001005   8   6   2   2
  -0.0000000145   8   6   3   1
  0.3644371236   8   6   3   2
  0.0000001005   8   6   3   3
  0.0536851849   8   6   4   1
  0.0000000807   8   6   4   2
  -0.5580176560   8   6   4   3
  -0.5580176237   8   6   5   2
  -0.0000000807   8   6   5   3
  -0.1016821125   8   6   5   4
  0.4952772598   8   6   6   2
  -0.3451061262   8   6   6   4
  0.0000000389   8   6   6   5
  -0.0000000106   8   6   7   1
  -0.0009861371   8   6   7   3
  -0.0000000809   8   6   7   4
  -0.7179475224   8   6   7   5
  0.0000000487   8   6   7   6
  0.1281180414   8   6   8   1
  0.0000000130   8   6   8   2
  -0.0503930382   8   6   8   3
  0.0000000412   8   6   8   4
  -0.3262146935   8   6   8   5
  0.8204150339   8   6   8   6
  -0.0000000193   8   7   1   1
  0.2218550689   8   7   2   2
  -0.4261566482   8   7   3   1
  0.0000000612   8   7   3   2
  -0.2218550905   8   7   3   3
  -0.2811053784   8   7   4   2
  -0.0000000407   8   7   4   3
  -0.1634908331   8   7   4   4
  0.0614986071   8   7   5   1
  -0.0000000407   8   7   5   2
  0.2811053795   8   7   5   3
  0.1634907848   8   7   5   5
  -0.0000000196   8   7   6   1
  0.2623449148   8   7   6   3
  -0.0000000300   8   7   6   4
  -0.2657591458   8   7   6   5
  0.0000000291   8   7   6   6
  0.1469662396   8   7   7   2
  0.3289797606   8   7   7   4
  -0.0000000371   8   7   7   5
  0.0191526277   8   7   8   2
  -0.1719366573   8   7   8   4
  -0.0000000217   8   7   8   5
  0.3119884032   8   7   8   7
  4.6509659439   8   8   1   1
  0.0000001352   8   8   2   1
  4.5646038788   8   8   2   2
  -0.5254420772   8   8   3   1
  4.0416242047   8   8   3   3
  -0.2583333776   8   8   4   2
  0.0000000356   8   8   4   3
  3.9840263160   8   8   4   4
  0.0660806491   8   8   5   1
  0.0000000225   8   8   5   2
  0.3580094319   8   8   5   3
  0.0000000329   8   8   5   4
  4.2760292632   8   8   5   5
  0.4647452415   8   8   6   1
  -0.0000000564   8   8   6   2
  0.2190710800   8   8   6   3
  0.0000000298   8   8   6   4
  -0.2363198783   8   8   6   5
  4.3507003585   8   8   6   6
  0.1117327419   8   8   7   2
  0.0000000288   8   8   7   3
  0.3681876841   8   8   7   4
  0.0000000465   8   8   7   5
  4.1290116345   8   8   7   7
  -0.0000000501   8   8   8   1
  -0.4494640625   8   8   8   2
  -0.0190956843   8   8   8   4
  -0.0000001123   8   8   8   6
  0.2733623845   8   8   8   7
  4.8597936734   8   8   8   8
  0.0000000378   9   1   1   1
  0.1397952725   9   1   2   2
  -0.2671873030   9   1   3   1
  0.0000000385   9   1   3   2
  -0.1397952589   9   1   3   3
  -0.0475950049   9   1   4   2
  -0.1490526264   9   1   4   4
  0.0533122871   9   1   5   1
  0.0475949468   9   1   5   3
  0.1490525957   9   1   5   5
  0.0000000358   9   1   6   1
  -0.1183435686   9   1   6   3
  0.0049993969   9   1   6   5
  0.0000000537   9   1   6   6
  0.1298143171   9   1   7   2
  0.1001898546   9   1   7   4
  -0.0000000113   9   1   7   5
  -0.1728000788   9   1   8   2
  -0.0000000445   9   1   8   3
  -0.0014019984   9   1   8   4
  0.0848939323   9   1   8   7
  0.2096978480   9   1   8   8
  0.3492294616   9   1   9   1
  0.0000000120   9   2   1   1
  0.1699254485   9   2   2   1
  0.0000000468   9   2   3   1
  0.0220935314   9   2   3   2
  0.1111047773   9   2   4   1
  0.0000000258   9   2   4   2
  -0.0278161854   9   2   4   3
  0.0000000173   9   2   4   4
  0.0000000161   9   2   5   1
  0.1838840357   9   2   5   2
  0.0536439758   9   2   5   4
  0.1016980140   9   2   6   2
  0.0000000280   9   2   6   3
  -0.1315557280   9   2   6   4
  -0.0000000190   9   2   6   5
  0.1123318309   9   2   7   1
  0.0000000268   9   2   7   2
  -0.0971868595   9   2   7   3
  -0.0000000157   9   2   7   4
  0.1083292050   9   2   7   5
  -0.0970483043   9   2   7   6
  -0.1728000687   9   2   8   1
  0.1055267310   9   2   8   3
  -0.0431584718   9   2   8   5
  -0.0503930625   9   2   8   6
  -0.0000000445   9   2   9   1
  0.2218258023   9   2   9   2
  -0.6510629693   9   3   1   1
  0.0000000468   9   3   2   1
  -0.3496457193   9   3   2   2
  -0.1699254938   9   3   3   1
  -0.3054585230   9   3   3   3
  0.0000000161   9   3   4   1
  -0.2486416961   9   3   4   2
  -0.0000000155   9   3   4   3
  -0.2823596384   9   3   4   4
  -0.1111049120   9   3   5   1
  0.0000000331   9   3   5   2
  -0.0925737542   9   3   5   3
  0.0000000131   9   3   5   4
  -0.1750715501   9   3   5   5
  -0.4267585437   9   3   6   1
  0.0000000280   9   3   6   2
  -0.1016980399   9   3   6   3
  -0.0000000190   9   3   6   4
  0.1315557791   9   3   6   5
  -0.2400805574   9   3   6   6
  -0.0971869217   9   3   7   2
  -0.0000000268   9   3   7   3
  0.1083292254   9   3   7   4
  0.0000000157   9   3   7   5
  -0.1116791960   9   3   7   7
  -0.0000000445   9   3   8   1
  0.2412576525   9   3   8   2
  -0.1082280989   9   3   8   4
  0.0000000114   9   3   8   5
  -0.0000000130   9   3   8   6
  -0.0191525955   9   3   8   7
  -0.3289343545   9   3   8   8
  0.1728000652   9   3   9   1
  0.5686102807   9   3   9   3
  0.0000000307   9   4   1   1
  0.2624278329   9   4   2   1
  0.0000000525   9   4   2   2
  0.0000000380   9   4   3   1
  -0.2355880447   9   4   3   2
  -0.0000000179   9   4   3   3
  -0.1612864803   9   4   4   1
  0.2197508146   9   4   4   3
  0.0000000182   9   4   4   4
  0.1332400084   9   4   5   2
  0.0416324049   9   4   5   4
  0.0000000176   9   4   6   1
  -0.2794681311   9   4   6   2
  -0.0000000404   9   4   6   3
  0.2520330268   9   4   6   4
  -0.0455391437   9   4   7   1
  -0.0000000199   9   4   7   2
  0.1372602275   9   4   7   3
  0.2884430914   9   4   7   5
  0.1001740936   9   4   7   6
  0.0000000102   9   4   7   7
  -0.0014019928   9   4   8   1
  -0.0000000114   9   4   8   2
  -0.0431584904   9   4   8   3
  0.1474719075   9   4   8   5
  -0.3262146338   9   4   8   6
  -0.0000000217   9   4   8   7
  0.0000000366   9   4   8   8
  -0.0758973124   9   4   9   2
  -0.0000000270   9   4   9   3
  0.2759201735   9   4   9   4
  0.2725918558   9   5   1   1
  0.0000000380   9   5   2   1
  0.3893633211   9   5   2   2
  -0.2624281206   9   5   3   1
  0.0000000352   9   5   3   2
  -0.0818128529   9   5   3   3
  -0.0966371947   9   5   4   2
  0.0781740943   9   5   4   4
  0.1612863939   9   5   5   1
  0.2563541373   9   5   5   3
  0.1614390222   9   5   5   5
  0.1565417977   9   5   6   1
  -0.0000000404   9   5   6   2
  0.2794682599   9   5   6   3
  -0.2520331081   9   5   6   5
  0.0802144128   9   5   6   6
  0.1372601822   9   5   7   2
  0.0000000199   9   5   7   3
  0.2884433087   9   5   7   4
  -0.0000000113   9   5   7   6
  0.0904838147   9   5   7   7
  -0.1082281432   9   5   8   2
  -0.1278897094   9   5   8   4
  -0.0000000412   9   5   8   6
  0.1719367216   9   5   8   7
  0.3247858168   9   5   8   8
  0.0014020160   9   5   9   1
  0.0000000127   9   5   9   2
  -0.2272839475   9   5   9   3
  0.2955025804   9   5   9   5
  0.0000001058   9   6   1   1
  0.0000000145   9   6   2   1
  0.3644371331   9   6   2   2
  -0.7905487433   9   6   3   1
  0.0000001005   9   6   3   2
  -0.3644370412   9   6   3   3
  -0.5580176014   9   6   4   2
  -0.0000000807   9   6   4   3
  -0.1016820620   9   6   4   4
  0.0536851639   9   6   5   1
  -0.0000000807   9   6   5   2
  0.5580176767   9   6   5   3
  0.1016820768   9   6   5   5
  0.0000000682   9   6   6   1
  0.4952771466   9   6   6   3
  -0.0000000389   9   6   6   4
  -0.3451061040   9   6   6   5
  0.0000000939   9   6   6   6
  0.0009861242   9   6   7   2
  0.7179474670   9   6   7   4
  -0.0000000809   9   6   7   5
  0.0000000159   9   6   7   7
  -0.0503931059   9   6   8   2
  -0.0000000130   9   6   8   3
  -0.3262146621   9   6   8   4
  -0.0000000412   9   6   8   5
  0.3375066420   9   6   8   7
  0.4699973282   9   6   8   8
  0.1281180418   9   6   9   1
  -0.0000000130   9   6   9   2
  0.0503929756   9   6   9   3
  -0.0000000412   9   6   9   4
  0.3262148478   9   6   9   5
  0.8204149216   9   6   9   6
  0.4261566752   9   7   2   1
  0.0000000612   9   7   2   2
  -0.2218550897   9   7   3   2
  -0.0000000612   9   7   3   3
  -0.0614986085   9   7   4   1
  -0.0000000407   9   7   4   2
  0.2811053765   9   7   4   3
  0.2811053600   9   7   5   2
  0.0000000407   9   7   5   3
  0.1634908509   9   7   5   4
  -0.2623449437   9   7   6   2
  0.2657591235   9   7   6   4
  -0.0000000300   9   7   6   5
  0.1469662480   9   7   7   3
  0.0000000371   9   7   7   4
  0.3289797721   9   7   7   5
  -0.0000000301   9   7   7   6
  -0.0848939536   9   7   8   1
  -0.0191525997   9   7   8   3
  -0.0000000217   9   7   8   4
  0.1719366488   9   7   8   5
  -0.3375066798   9   7   8   6
  0.0000000653   9   7   8   8
  -0.0191525984   9   7   9   2
  0.1719365898   9   7   9   4
  0.0000000217   9   7   9   5
  0.3119884164   9   7   9   7
  -0.5254420450   9   8   2   1
  -0.0000001352   9   8   3   1
  0.2614897954   9   8   3   2
  0.0660805902   9   8   4   1
  -0.0000000291   9   8   4   2
  -0.3081713632   9   8   4   3
  -0.0000000329   9   8   4   4
  -0.3081713474   9   8   5   2
  0.0000000291   9   8   5   3
  -0.1460014967   9   8   5   4
  0.0000000329   9   8   5   5
  0.2190710540   9   8   6   2
  0.0000000564   9   8   6   3
  -0.2363198247   9   8   6   4
  -0.0000000298   9   8   6   5
  0.0000000288   9   8   7   2
  -0.1117327100   9   8   7   3
  0.0000000465   9   8   7   4
  -0.3681876315   9   8   7   5
  0.0000000196   9   8   7   6
  0.2096978265   9   8   8   1
  -0.0602648750   9   8   8   3