 &FCI NORB= 22,NELEC= ,MS0= ,
  ORBSYM=1,2,1,2,3,4,1,3,2,4,3,1,2,4,1,3,2,1,4,3,4,3,
  ISYM=1,
 /
  -86.3324592804970478709947201   1   1   0   0
  -0.0000000521944303333299331   2   1   0   0
  -80.8543692093174257706778008   2   2   0   0
  5.1022019689010678078489036   3   1   0   0
  -0.0000000271229441128895132   3   2   0   0
  -78.5046986900317449453723384   3   3   0   0
  -0.0000000266780213475925621   4   1   0   0
  6.8098812874250356230731995   4   2   0   0
  -0.0000000476068340304891535   4   3   0   0
  -76.5179365055777793713787105   4   4   0   0
  -82.8727730642766999835657771   5   5   0   0
  -0.0000001985252784941771154   6   5   0   0
  -77.5302966837256519738730276   6   6   0   0
  1.5708133786090472394647577   7   1   0   0
  7.8940177812008105462382446   7   3   0   0
  -0.0000001210798332706986002   7   4   0   0
  -74.2849910019314876308271778   7   7   0   0
  -4.7278747939176897219226703   8   5   0   0
  0.0000000812099391067633292   8   6   0   0
  -75.3100000985019022436972591   8   8   0   0
  0.0000000604195469211532554   9   1   0   0
  1.9327011745640303441717833   9   2   0   0
  0.0000003000437556188728649   9   3   0   0
  7.8709138301098704459946021   9   4   0   0
  0.0000007353747903948715248   9   7   0   0
  -80.0947211453845397954864893   9   9   0   0
  0.0000000747848066806611200   10   5   0   0
  -5.9113570411260356607385802   10   6   0   0
  -0.0000000786429854571224496   10   8   0   0
  -74.3442069833808147905074293   10   10   0   0
  1.0011766062594649184802620   11   5   0   0
  -0.0000000363614712783899563   11   6   0   0
  -5.3623016512854917436925462   11   8   0   0
  0.0000001197989573098467986   11   10   0   0
  -76.8138763320607154128083494   11   11   0   0
  0.1982181805897023085805131   12   1   0   0
  0.7693183750325949255000069   12   3   0   0
  -0.0000001785967758127782190   12   4   0   0
  2.6993452025446034170386156   12   7   0   0
  0.0000004897294505479266036   12   9   0   0
  -75.7596910417107380908419145   12   12   0   0
  -0.5668878035229416578744122   13   2   0   0
  0.0000000974446152657293396   13   3   0   0
  -0.3360839790129745985325371   13   4   0   0
  -0.0000000611832478014662229   13   7   0   0
  -4.5966267132748965806854358   13   9   0   0
  0.0000000782300838553240396   13   12   0   0
  -71.4003664463374150273011765   13   13   0   0
  -0.0000000396885564413196334   14   5   0   0
  -1.4669694729994817716800526   14   6   0   0
  0.0000002399324841029226718   14   8   0   0
  5.0090946176375421572402047   14   10   0   0
  -0.0000002776726972797405324   14   11   0   0
  -75.2948020124918429019089672   14   14   0   0
  0.2720479386166249069489709   15   1   0   0
  -0.0000000466140652743973760   15   2   0   0
  -1.1089042812859102316025428   15   3   0   0
  0.0000000944778091316322843   15   4   0   0
  3.2522072522882052858506086   15   7   0   0
  0.0000002397093075146017327   15   9   0   0
  5.2707133288960719141869049   15   12   0   0
  0.0000000408607894186729936   15   13   0   0
  -70.5273813825869240190513665   15   15   0   0
  0.8500161797113284789517706   16   5   0   0
  -3.6459026665156661906053159   16   8   0   0
  0.0000001208673481301048014   16   10   0   0
  2.7645617659134229526785020   16   11   0   0
  -0.0000007832050714640104161   16   14   0   0
  -68.4317424072504394416682771   16   16   0   0
  0.0000000285469526351000980   17   1   0   0
  1.9244988644585223624972059   17   2   0   0
  -0.0000001026490288325021538   17   3   0   0
  -1.6409790247019795383920382   17   4   0   0
  -0.0000000247821774213008439   17   7   0   0
  -1.2966348135955663156693163   17   9   0   0
  0.0000000271550569808098885   17   12   0   0
  5.8562726619769760461053920   17   13   0   0
  0.0000000520065114306689225   17   15   0   0
  -71.2854396258659193108542240   17   17   0   0
  2.4796205335667278468747554   18   1   0   0
  -0.0000000845987344622045612   18   2   0   0
  -0.6961608296690802166750700   18   3   0   0
  -0.7336790022779497988381081   18   7   0   0
  -0.0000000397362799331446581   18   9   0   0
  -0.9740250698421073494159828   18   12   0   0
  -0.0000000672679889568428280   18   13   0   0
  -4.7147871143101216517834473   18   15   0   0
  -0.0000001797913988799137996   18   17   0   0
  -75.6974282499573263294223580   18   18   0   0
  0.0000000180473681554715881   19   5   0   0
  -1.8842859492595223080968481   19   6   0   0
  -0.0000000437421732168985500   19   8   0   0
  0.3642199147090758870604077   19   10   0   0
  0.0000000819641208238408581   19   11   0   0
  7.6092489549594866105053370   19   14   0   0
  0.0000000774555264371201702   19   16   0   0
  -68.7742265861972583707029116   19   19   0   0
  0.8027658919946768500963685   20   5   0   0
  1.0477267520256994259852945   20   8   0   0
  0.6311381938274089886675711   20   11   0   0
  -0.0000003000390347285275539   20   14   0   0
  7.6611367954316165196360089   20   16   0   0
  0.0000000232813652800700766   20   19   0   0
  -68.9209446564644707677871338   20   20   0   0
  0.0000000243889115014717106   21   5   0   0
  -1.8151650546913171702101408   21   6   0   0
  -0.0000000211151052198488287   21   8   0   0
  -0.4259183192976851994870913   21   10   0   0
  -1.8287149982299339967539709   21   14   0   0
  -6.6849701257657692110569769   21   19   0   0
  -0.0000000128475707850128629   21   20   0   0
  -69.8093006666872923915434512   21   21   0   0
  2.3298387485217810777271552   22   5   0   0
  -0.0000000108840778056951137   22   6   0   0
  0.1899045879386352941864402   22   8   0   0
  -0.1504400616266304280266297   22   11   0   0
  0.0000000601848934023152538   22   14   0   0
  -1.5077295974545887879969541   22   16   0   0
  -0.0000000199044618565125120   22   19   0   0
  -5.0533533936151933119163004   22   20   0   0
  0.0000000451535697720828466   22   21   0   0
  -74.3573130881610069309317623   22   22   0   0
  4.7615633946   1   1   1   1
  1.3539994795   2   1   2   1
  4.0375293250   2   2   1   1
  4.1334124789   2   2   2   2
  -0.7271735267   3   1   1   1
  0.0906737619   3   1   2   2
  0.8159886500   3   1   3   1
  0.9474166245   3   2   2   1
  1.0698945882   3   2   3   2
  3.9959121265   3   3   1   1
  3.8457246393   3   3   2   2
  -0.1538711231   3   3   3   1
  3.8705213687   3   3   3   3
  -0.4093038368   4   1   2   1
  0.1129737067   4   1   3   2
  0.5162441320   4   1   4   1
  -0.7646135329   4   2   1   1
  -0.2062593118   4   2   2   2
  0.5583756878   4   2   3   1
  -0.1365470777   4   2   3   3
  0.6177853680   4   2   4   2
  0.9256299420   4   3   2   1
  0.8251257803   4   3   3   2
  -0.0000000102   4   3   3   3
  -0.1052063649   4   3   4   1
  -0.0000000161   4   3   4   2
  1.0256882614   4   3   4   3
  3.9460490425   4   4   1   1
  3.7288641391   4   4   2   2
  -0.2210851022   4   4   3   1
  -0.0000000209   4   4   3   2
  3.8184653267   4   4   3   3
  -0.0000000229   4   4   4   1
  -0.1350296115   4   4   4   2
  3.8864647344   4   4   4   4
  0.7059487119   5   1   5   1
  -0.0000000134   5   2   5   1
  0.3578741501   5   2   5   2
  -0.1949054313   5   3   5   1
  0.2772521112   5   3   5   3
  -0.1410786124   5   4   5   2
  0.2002600388   5   4   5   4
  4.6946077351   5   5   1   1
  -0.0000000424   5   5   2   1
  3.9721753730   5   5   2   2
  -0.7229202740   5   5   3   1
  -0.0000000341   5   5   3   2
  3.9346688580   5   5   3   3
  0.0000000153   5   5   4   1
  -0.7514983098   5   5   4   2
  -0.0000000296   5   5   4   3
  3.8836179524   5   5   4   4
  4.6643782576   5   5   5   5
  0.3641934507   6   1   5   2
  -0.0000000111   6   1   5   3
  -0.1434487532   6   1   5   4
  0.3706937531   6   1   6   1
  0.5083422302   6   2   5   1
  0.0892977721   6   2   5   3
  0.6022276769   6   2   6   2
  -0.0000000141   6   3   5   1
  0.2080700798   6   3   5   2
  0.0705705547   6   3   5   4
  0.2117396317   6   3   6   1
  0.2825015870   6   3   6   3
  -0.1882420387   6   4   5   1
  0.1646038272   6   4   5   3
  -0.0000000111   6   4   6   1
  -0.0199960210   6   4   6   2
  0.2227963708   6   4   6   4
  0.0000000167   6   5   1   1
  1.2998346205   6   5   2   1
  -0.0000000277   6   5   3   1
  0.9043638793   6   5   3   2
  -0.3943121826   6   5   4   1
  -0.0000000193   6   5   4   2
  0.8886154047   6   5   4   3
  -0.0000000202   6   5   5   5
  1.2744761585   6   5   6   5
  3.9948981929   6   6   1   1
  0.0000000173   6   6   2   1
  4.0571984840   6   6   2   2
  0.0586165251   6   6   3   1
  3.7863070882   6   6   3   3
  -0.0000000170   6   6   4   1
  -0.2164417295   6   6   4   2
  0.0000000101   6   6   4   3
  3.6946090634   6   6   4   4
  3.9573399303   6   6   5   5
  0.0000000153   6   6   6   5
  4.0304022186   6   6   6   6
  -0.0234543569   7   1   1   1
  -0.2885896506   7   1   2   2
  -0.2636130153   7   1   3   1
  0.0133692048   7   1   3   3
  0.0415610922   7   1   4   2
  -0.0000000219   7   1   4   3
  0.0948582884   7   1   4   4
  -0.0171655117   7   1   5   5
  -0.2611773629   7   1   6   6
  0.2972239335   7   1   7   1
  -0.4322514914   7   2   2   1
  -0.1578468211   7   2   3   2
  -0.0000000150   7   2   3   3
  0.2744033923   7   2   4   1
  -0.0000000145   7   2   4   2
  0.0839487153   7   2   4   3
  -0.0000000131   7   2   4   4
  0.0000000133   7   2   5   5
  -0.4054128013   7   2   6   5
  -0.0000000270   7   2   7   1
  0.5098638061   7   2   7   2
  -0.7940724649   7   3   1   1
  0.0000000138   7   3   2   1
  -0.3371955519   7   3   2   2
  0.4574345351   7   3   3   1
  -0.0000000134   7   3   3   2
  -0.1932841111   7   3   3   3
  -0.0000000320   7   3   4   1
  0.5965167577   7   3   4   2
  -0.0756247278   7   3   4   4
  -0.7733028277   7   3   5   5
  -0.3154774164   7   3   6   6
  0.1328558660   7   3   7   1
  -0.0000000172   7   3   7   2
  0.6914555937   7   3   7   3
  0.0000000213   7   4   1   1
  0.7762460692   7   4   2   1
  -0.0000000182   7   4   2   2
  -0.0000000475   7   4   3   1
  0.9512784277   7   4   3   2
  0.1704376293   7   4   4   1
  -0.0000000264   7   4   4   2
  0.9074740101   7   4   4   3
  0.7550634230   7   4   6   5
  -0.0000000194   7   4   6   6
  0.0000000223   7   4   7   1
  0.1037895654   7   4   7   2
  -0.0000000254   7   4   7   3
  1.0481052060   7   4   7   4
  0.0034263308   7   5   5   1
  -0.0978428232   7   5   5   3
  -0.0968330929   7   5   6   2
  0.0474345993   7   5   6   4
  0.1258521171   7   5   7   5
  -0.1276656418   7   6   5   2
  0.1103196784   7   6   5   4
  -0.1295302428   7   6   6   1
  -0.0093483005   7   6   6   3
  -0.0000000106   7   6   7   5
  0.1530868510   7   6   7   6
  3.6667594638   7   7   1   1
  -0.0000000906   7   7   2   1
  3.8835966855   7   7   2   2
  0.2128246157   7   7   3   1
  -0.0000000525   7   7   3   2
  3.7821833429   7   7   3   3
  0.0000000370   7   7   4   1
  0.0995289540   7   7   4   2
  -0.0000000509   7   7   4   3
  3.7479232384   7   7   4   4
  3.6066044264   7   7   5   5
  -0.0000000907   7   7   6   5
  3.7838437972   7   7   6   6
  -0.1188216235   7   7   7   1
  0.0000000415   7   7   7   2
  0.0426471689   7   7   7   3
  -0.0000000526   7   7   7   4
  3.9430238238   7   7   7   7
  0.1840797060   8   1   5   1
  -0.2804172510   8   1   5   3
  -0.1037556258   8   1   6   2
  -0.1649509329   8   1   6   4
  0.0993358581   8   1   7   5
  0.2846559201   8   1   8   1
  -0.2192466302   8   2   5   2
  -0.0676610226   8   2   5   4
  -0.2231839868   8   2   6   1
  -0.2907394350   8   2   6   3
  0.0097472590   8   2   7   6
  0.2997040955   8   2   8   2
  -0.4930169303   8   3   5   1
  0.0116704727   8   3   5   3
  -0.4827864651   8   3   6   2
  -0.0551898726   8   3   6   4
  -0.0519920163   8   3   7   5
  -0.0003488420   8   3   8   1
  0.5467955103   8   3   8   3
  0.0000000134   8   4   5   1
  -0.1984912510   8   4   5   2
  -0.0054413998   8   4   5   4
  -0.2021125783   8   4   6   1
  -0.2061375631   8   4   6   3
  -0.0433830823   8   4   7   6
  0.2161468907   8   4   8   2
  -0.0000000110   8   4   8   3
  0.2366019479   8   4   8   4
  0.6826037900   8   5   1   1
  -0.0870124167   8   5   2   2
  -0.7662471040   8   5   3   1
  0.1414915849   8   5   3   3
  0.0000000167   8   5   4   1
  -0.5245497931   8   5   4   2
  0.1801937366   8   5   4   4
  0.6927172846   8   5   5   5
  0.0000000169   8   5   6   5
  -0.0742269953   8   5   6   6
  0.2387993327   8   5   7   1
  -0.4491935100   8   5   7   3
  0.0000000486   8   5   7   4
  -0.1766371642   8   5   7   7
  0.7542904726   8   5   8   5
  -0.9322923286   8   6   2   1
  -0.0000000121   8   6   2   2
  -1.0266463790   8   6   3   2
  -0.0859421632   8   6   4   1
  -0.8379915455   8   6   4   3
  0.0000000197   8   6   4   4
  0.0000000320   8   6   5   5
  -0.9051907676   8   6   6   5
  0.1237418882   8   6   7   2
  0.0000000149   8   6   7   3
  -0.8993162858   8   6   7   4
  0.0000000493   8   6   7   7
  1.0269412406   8   6   8   6
  0.1676528863   8   7   5   1
  -0.1488912549   8   7   5   3
  0.0000000108   8   7   5   4
  0.0141402469   8   7   6   2
  -0.1504567679   8   7   6   4
  -0.0097377215   8   7   7   5
  0.1519338106   8   7   8   1
  -0.0000000110   8   7   8   2
  -0.0061125806   8   7   8   3
  0.1631432793   8   7   8   7
  3.9387833613   8   8   1   1
  3.7998990365   8   8   2   2
  -0.1404453266   8   8   3   1
  0.0000000102   8   8   3   2
  3.8428688445   8   8   3   3
  -0.1028247686   8   8   4   2
  -0.0000000134   8   8   4   3
  3.7330362369   8   8   4   4
  3.9104188761   8   8   5   5
  3.7749099305   8   8   6   6
  0.0263787711   8   8   7   1
  -0.0000000187   8   8   7   2
  -0.2067093727   8   8   7   3
  3.6936980728   8   8   7   7
  0.1310034492   8   8   8   5
  3.9017154804   8   8   8   8
  -0.0028554346   9   1   2   1
  -0.2261637634   9   1   3   2
  -0.0000000170   9   1   3   3
  -0.2191264442   9   1   4   1
  -0.0000000169   9   1   4   2
  0.1741608505   9   1   4   3
  0.0000000144   9   1   4   4
  0.0020839948   9   1   6   5
  -0.0000000192   9   1   7   1
  0.1954301495   9   1   7   2
  0.0000000178   9   1   7   3
  -0.0646392687   9   1   7   4
  0.1683048230   9   1   8   6
  -0.0000000248   9   1   8   8
  0.3630578846   9   1   9   1
  -0.0215008531   9   2   1   1
  -0.3394503815   9   2   2   2
  -0.3166056702   9   2   3   1
  -0.0000000234   9   2   3   2
  -0.0211665847   9   2   3   3
  -0.0000000162   9   2   4   1
  0.0081965998   9   2   4   2
  0.1337048714   9   2   4   4
  -0.0143930416   9   2   5   5
  -0.2896317698   9   2   6   6
  0.3276948916   9   2   7   1
  0.1713328905   9   2   7   3
  0.0000000219   9   2   7   4
  -0.1518790891   9   2   7   7
  0.2686786345   9   2   8   5
  0.0000000283   9   2   8   6
  -0.0416460215   9   2   8   8
  0.0000000261   9   2   9   1
  0.4075522906   9   2   9   2
  -0.0000000118   9   3   1   1
  -0.5061003343   9   3   2   1
  -0.0000000361   9   3   2   2
  -0.0000000194   9   3   3   1
  -0.0329297626   9   3   3   2
  -0.0000000102   9   3   3   3
  0.4736077177   9   3   4   1
  -0.0623128001   9   3   4   3
  -0.0000000118   9   3   4   4
  -0.4640977820   9   3   6   5
  -0.0000000463   9   3   6   6
  0.0000000258   9   3   7   1
  0.4300678932   9   3   7   2
  0.1805525260   9   3   7   4
  0.0000000351   9   3   7   7
  0.0000000304   9   3   8   5
  0.0530484441   9   3   8   6
  -0.0000000118   9   3   8   8
  -0.0591504917   9   3   9   1
  0.0000000311   9   3   9   2
  0.5646609636   9   3   9   3
  -0.9068431227   9   4   1   1
  -0.0000000343   9   4   2   1
  -0.1534993072   9   4   2   2
  0.7544646955   9   4   3   1
  -0.2114240526   9   4   3   3
  0.0000000343   9   4   4   1
  0.6870919735   9   4   4   2
  -0.2060830906   9   4   4   4
  -0.8755193666   9   4   5   5
  -0.0000000535   9   4   6   5
  -0.1790588421   9   4   6   6
  -0.0842805140   9   4   7   1
  0.0000000374   9   4   7   2
  0.6645929021   9   4   7   3
  -0.0000000130   9   4   7   4
  0.1776407591   9   4   7   7
  -0.6803210176   9   4   8   5
  -0.2105944394   9   4   8   8
  -0.1138835971   9   4   9   2
  0.0000000445   9   4   9   3
  0.8769041112   9   4   9   4
  0.0044494380   9   5   5   2
  -0.0661862687   9   5   5   4
  0.0045889760   9   5   6   1
  -0.0630485304   9   5   6   3
  -0.0000000111   9   5   7   5
  0.0471009413   9   5   7   6
  0.0605693617   9   5   8   2
  -0.0392287583   9   5   8   4
  0.0991450025   9   5   9   5
  0.0058569891   9   6   5   1
  -0.0832406176   9   6   5   3
  -0.0000000107   9   6   5   4
  -0.0781626251   9   6   6   2
  0.0036000730   9   6   6   4
  0.0838986287   9   6   7   5
  0.0818294184   9   6   8   1
  -0.0053232994   9   6   8   3
  -0.0285873999   9   6   8   7
  0.0915267617   9   6   9   6
  -0.0000000950   9   7   1   1
  1.2890029756   9   7   2   1
  -0.0000000169   9   7   2   2
  0.0000000653   9   7   3   1
  1.1398342963   9   7   3   2
  -0.0000000199   9   7   3   3
  -0.1583364173   9   7   4   1
  0.0000000635   9   7   4   2
  1.1099828207   9   7   4   3
  -0.0000000262   9   7   4   4
  -0.0000001286   9   7   5   5
  1.2078967368   9   7   6   5
  -0.0000000152   9   7   6   6
  -0.2094497213   9   7   7   2
  0.0000000696   9   7   7   3
  1.0798378729   9   7   7   4
  -0.0000000643   9   7   7   7
  -0.0000000617   9   7   8   5
  -1.0806255383   9   7   8   6
  -0.0000000213   9   7   8   8
  -0.0318358341   9   7   9   1
  -0.0000000126   9   7   9   2
  -0.2350474878   9   7   9   3
  0.0000000751   9   7   9   4
  1.4669730350   9   7   9   7
  0.1015094238   9   8   5   2
  0.0000000127   9   8   5   3
  -0.1031298545   9   8   5   4
  0.1023413026   9   8   6   1
  0.0000000116   9   8   6   2
  -0.0044138789   9   8   6   3
  -0.0882430250   9   8   7   6
  -0.0000000156   9   8   8   1
  0.0016027066   9   8   8   2
  -0.0012053658   9   8   8   4
  0.0123103974   9   8   9   5
  0.0911481438   9   8   9   8
  4.3721842649   9   9   1   1
  0.0000001489   9   9   2   1
  4.0365551353   9   9   2   2
  -0.3422379581   9   9   3   1
  0.0000001343   9   9   3   2
  3.9774363961   9   9   3   3
  -0.0000000124   9   9   4   1
  -0.4095197843   9   9   4   2
  0.0000001332   9   9   4   3
  3.9414353717   9   9   4   4
  4.2644305827   9   9   5   5
  0.0000001492   9   9   6   5
  3.9369485020   9   9   6   6
  -0.0587568645   9   9   7   1
  -0.0000000192   9   9   7   2
  -0.4537781837   9   9   7   3
  0.0000001400   9   9   7   4
  3.8531973736   9   9   7   7
  0.3143915277   9   9   8   5
  -0.0000001291   9   9   8   6
  3.8658548741   9   9   8   8
  -0.0701518005   9   9   9   2
  -0.0000000350   9   9   9   3
  -0.4829535780   9   9   9   4
  0.0000001253   9   9   9   7
  4.2772235660   9   9   9   9
  0.1398228454   10   1   5   2
  -0.2062945027   10   1   5   4
  0.1424312578   10   1   6   1
  -0.0797179114   10   1   6   3
  -0.1205711282   10   1   7   6
  0.0776728330   10   1   8   2
  0.0199641602   10   1   8   4
  0.0593242991   10   1   9   5
  0.0000000134   10   1   9   6
  0.0980202376   10   1   9   8
  0.2172188147   10   1   10   1
  0.1837852049   10   2   5   1
  -0.1733175371   10   2   5   3
  0.0063055125   10   2   6   2
  -0.2400568547   10   2   6   4
  -0.0538436354   10   2   7   5
  0.0000000109   10   2   7   6
  0.1746332556   10   2   8   1
  0.0794882867   10   2   8   3
  0.1527916683   10   2   8   7
  0.0000000101   10   2   9   5
  -0.0005021540   10   2   9   6
  0.2621507005   10   2   10   2
  -0.2124748883   10   3   5   2
  -0.0105581820   10   3   5   4
  -0.2164689880   10   3   6   1
  -0.2254859904   10   3   6   3
  -0.0376574917   10   3   7   6
  0.2363367769   10   3   8   2
  0.2455614879   10   3   8   4
  -0.0303872441   10   3   9   5
  -0.0038274249   10   3   9   8
  0.0257669040   10   3   10   1
  0.2570854820   10   3   10   3
  -0.4650827320   10   4   5   1
  -0.0107892930   10   4   5   3
  -0.4794128774   10   4   6   2
  0.0000000116   10   4   6   3
  0.0077631503   10   4   6   4
  0.0094402905   10   4   7   5
  0.0252060905   10   4   8   1
  0.4483309675   10   4   8   3
  0.0240813765   10   4   8   7
  -0.0169855780   10   4   9   6
  0.0008671777   10   4   10   2
  0.4597525688   10   4   10   4
  0.3672316115   10   5   2   1
  -0.1076575757   10   5   3   2
  -0.4649126720   10   5   4   1
  0.0522336388   10   5   4   3
  0.0000000212   10   5   4   4
  -0.0000000160   10   5   5   5
  0.3728252766   10   5   6   5
  -0.2794336320   10   5   7   2
  0.0000000310   10   5   7   3
  -0.1271156583   10   5   7   4
  -0.0000000345   10   5   7   7
  0.1088456932   10   5   8   6
  0.1576062478   10   5   9   1
  0.0000000232   10   5   9   2
  -0.3951255032   10   5   9   3
  -0.0000000305   10   5   9   4
  0.1316186055   10   5   9   7
  0.4737114234   10   5   10   5
  0.7073128256   10   6   1   1
  0.1600215726   10   6   2   2
  -0.5457099614   10   6   3   1
  -0.0000000103   10   6   3   2
  0.0699342130   10   6   3   3
  -0.6209572166   10   6   4   2
  0.0000000175   10   6   4   3
  0.1286000335   10   6   4   4
  0.7137122238   10   6   5   5
  0.0000000185   10   6   6   5
  0.1747263650   10   6   6   6
  -0.0531661587   10   6   7   1
  0.0000000184   10   6   7   2
  -0.5387019852   10   6   7   3
  0.0000000251   10   6   7   4
  -0.0898450015   10   6   7   7
  0.5304584401   10   6   8   5
  -0.0078492728   10   6   8   8
  0.0000000249   10   6   9   1
  0.0172949540   10   6   9   2
  -0.6226954716   10   6   9   4
  -0.0000000589   10   6   9   7
  0.3593954999   10   6   9   9
  0.7014168445   10   6   10   6
  -0.1883070694   10   7   5   2
  0.0000000121   10   7   5   3
  0.0055282875   10   7   5   4
  -0.1923833183   10   7   6   1
  0.0000000146   10   7   6   2
  -0.1789885556   10   7   6   3
  0.0088892062   10   7   7   6
  0.1848848330   10   7   8   2
  0.1669586939   10   7   8   4
  0.0077250225   10   7   9   5
  0.0130816358   10   7   9   8
  -0.0091882714   10   7   10   1
  0.1747474605   10   7   10   3
  -0.0000000111   10   7   10   4
  0.1714883216   10   7   10   7
  0.9169524219   10   8   2   1
  0.9086471409   10   8   3   2
  -0.0143449242   10   8   4   1
  0.9286641719   10   8   4   3
  -0.0000000138   10   8   4   4
  -0.0000000296   10   8   5   5
  0.8961671977   10   8   6   5
  -0.0000000109   10   8   7   1
  -0.0078491528   10   8   7   2
  0.8692594401   10   8   7   4
  -0.0000000500   10   8   7   7
  -0.9429227611   10   8   8   6
  0.0207153000   10   8   9   1
  -0.0000000143   10   8   9   2
  -0.0679220649   10   8   9   3
  1.0533059896   10   8   9   7
  0.0000001265   10   8   9   9
  -0.0398960625   10   8   10   5
  0.9583136415   10   8   10   8
  0.1173158899   10   9   5   1
  0.0000000168   10   9   5   2
  -0.1184566567   10   9   5   3
  0.0000000201   10   9   6   1
  -0.0026470763   10   9   6   2
  -0.1048879830   10   9   6   4
  0.0130558827   10   9   7   5
  0.1162935708   10   9   8   1
  -0.0049644602   10   9   8   3
  0.0937422569   10   9   8   7
  0.0154709075   10   9   9   6
  0.0000000116   10   9   10   1
  0.1038613989   10   9   10   2
  -0.0043141458   10   9   10   4
  0.0832810485   10   9   10   9
  3.9309739946   10   10   1   1
  3.8657428745   10   10   2   2
  -0.0676787198   10   10   3   1
  3.7455531294   10   10   3   3
  -0.0000000120   10   10   4   1
  -0.1875435834   10   10   4   2
  3.7366172756   10   10   4   4
  3.9079753909   10   10   5   5
  3.8777460668   10   10   6   6
  -0.1033475835   10   10   7   1
  -0.1988486505   10   10   7   3
  -0.0000000149   10   10   7   4
  3.6875113372   10   10   7   7
  0.0270242694   10   10   8   5
  3.7346793514   10   10   8   8
  -0.0871168313   10   10   9   2
  -0.0000000250   10   10   9   3
  -0.2019639380   10   10   9   4
  -0.0000000274   10   10   9   7
  3.8492120741   10   10   9   9
  0.1644895222   10   10   10   6
  3.8320181574   10   10   10   10
  -0.0014750328   11   1   5   1
  -0.0987193103   11   1   5   3
  -0.1037456440   11   1   6   2
  0.0844742618   11   1   6   4
  0.1510404455   11   1   7   5
  0.1025762918   11   1   8   1
  -0.0889744489   11   1   8   3
  0.0057918333   11   1   8   7
  -0.0000000153   11   1   9   5
  0.0689390368   11   1   9   6
  -0.0989488958   11   1   10   2
  0.0317069852   11   1   10   4
  0.0084179725   11   1   10   9
  0.2096300650   11   1   11   1
  -0.1331869454   11   2   5   2
  0.1547369333   11   2   5   4
  -0.1357398607   11   2   6   1
  0.0340463298   11   2   6   3
  -0.0000000108   11   2   7   5
  0.1507578918   11   2   7   6
  -0.0339662142   11   2   8   2
  -0.0480164384   11   2   8   4
  0.0127202557   11   2   9   5
  -0.0833459099   11   2   9   8
  -0.1715961716   11   2   10   1
  -0.0476987855   11   2   10   3
  0.0180096933   11   2   10   7
  -0.0000000112   11   2   10   9
  0.1788247704   11   2   11   2
  -0.1704007971   11   3   5   1
  0.2029978357   11   3   5   3
  -0.0000000126   11   3   5   4
  0.0394635597   11   3   6   2
  0.1542584251   11   3   6   4
  -0.0335297407   11   3   7   5
  -0.2089757254   11   3   8   1
  0.0016464847   11   3   8   3
  -0.1675094225   11   3   8   7
  -0.0054487331   11   3   9   6
  0.0000000113   11   3   9   8
  -0.1610933573   11   3   10   2
  -0.0393944583   11   3   10   4
  -0.0943410760   11   3   10   9
  -0.0526997994   11   3   11   1
  0.1984682000   11   3   11   3
  0.2429403619   11   4   5   2
  -0.0000000156   11   4   5   3
  -0.0485159855   11   4   5   4
  0.2482970705   11   4   6   1
  0.1878941164   11   4   6   3
  -0.0000000119   11   4   6   4
  -0.0445642031   11   4   7   6
  -0.1959344146   11   4   8   2
  -0.1773092000   11   4   8   4
  0.0000000100   11   4   8   7
  -0.0038106216   11   4   9   5
  0.0153784520   11   4   9   8
  0.0531181334   11   4   10   1
  -0.1879270125   11   4   10   3
  -0.1838270173   11   4   10   7
  0.0000000138   11   4   10   9
  -0.0579237387   11   4   11   2
  0.2121026767   11   4   11   4
  -0.0166702642   11   5   1   1
  -0.2273663654   11   5   2   2
  -0.2086714463   11   5   3   1
  0.0000000110   11   5   3   2
  0.0801828123   11   5   3   3
  0.0000000104   11   5   4   1
  0.0966454551   11   5   4   2
  -0.0000000214   11   5   4   3
  0.0381316230   11   5   4   4
  -0.0114023701   11   5   5   5
  -0.2372249293   11   5   6   6
  0.2770151715   11   5   7   1
  -0.0000000263   11   5   7   2
  0.0687561487   11   5   7   3
  0.0000000172   11   5   7   4
  -0.0747086301   11   5   7   7
  0.2222448437   11   5   8   5
  0.1550004142   11   5   8   8
  -0.0000000280   11   5   9   1
  0.2219882177   11   5   9   2
  0.0000000196   11   5   9   3
  -0.0524592282   11   5   9   4
  -0.0379713530   11   5   9   9
  -0.1770641881   11   5   10   6
  -0.1420585734   11   5   10   10
  0.4087943033   11   5   11   5
  -0.3581338118   11   6   2   1
  0.0129291767   11   6   3   2
  0.3621505771   11   6   4   1
  0.0265006787   11   6   4   3
  -0.0000000174   11   6   4   4
  0.0000000127   11   6   5   5
  -0.3655726771   11   6   6   5
  -0.0000000121   11   6   7   1
  0.3557842208   11   6   7   2
  -0.0000000225   11   6   7   3
  0.0902605297   11   6   7   4
  0.0000000333   11   6   7   7
  -0.0423318468   11   6   8   6
  0.0014143677   11   6   9   1
  -0.0000000141   11   6   9   2
  0.3525553953   11   6   9   3
  0.0000000309   11   6   9   4
  -0.1396503058   11   6   9   7
  -0.0000000111   11   6   9   9
  -0.4065593876   11   6   10   5
  0.0558671540   11   6   10   8
  0.4106225899   11   6   11   6
  0.4275313052   11   7   5   1
  -0.0000000210   11   7   5   2
  -0.0432341889   11   7   5   3
  0.3834750550   11   7   6   2
  -0.0000000145   11   7   6   3
  -0.0480186982   11   7   6   4
  -0.0071062424   11   7   7   5
  0.0372121778   11   7   8   1
  -0.3673388496   11   7   8   3
  0.0000000141   11   7   8   4
  0.0421863276   11   7   8   7
  -0.0077227731   11   7   9   6
  0.0459820575   11   7   10   2
  -0.3466224636   11   7   10   4
  0.0000000145   11   7   10   7
  0.0131819780   11   7   10   9
  -0.0066084335   11   7   11   1
  -0.0453338284   11   7   11   3
  0.3115164042   11   7   11   7
  0.6710048223   11   8   1   1
  0.0502078368   11   8   2   2
  -0.6173936586   11   8   3   1
  0.1456303147   11   8   3   3
  0.0000000162   11   8   4   1
  -0.5114650158   11   8   4   2
  0.1093389462   11   8   4   4
  0.6838198890   11   8   5   5
  0.0000000134   11   8   6   5
  0.0357240910   11   8   6   6
  0.0981822439   11   8   7   1
  -0.5133046737   11   8   7   3
  0.0000000345   11   8   7   4
  -0.1022394264   11   8   7   7
  0.6391289971   11   8   8   5
  0.1463932596   11   8   8   8
  0.0858157304   11   8   9   2
  0.0000000180   11   8   9   3
  -0.6039661888   11   8   9   4
  -0.0000000604   11   8   9   7
  0.3297797664   11   8   9   9
  0.5123319364   11   8   10   6
  0.0457329887   11   8   10   10
  0.1411863918   11   8   11   5
  0.6107067340   11   8   11   8
  -0.0000000339   11   9   5   1
  0.1055799896   11   9   5   2
  0.0000000117   11   9   5   3
  -0.0133110165   11   9   5   4
  0.1068023184   11   9   6   1
  -0.0000000178   11   9   6   2
  0.0918890750   11   9   6   3
  0.0000000111   11   9   6   4
  -0.0156743628   11   9   7   6
  -0.0000000141   11   9   8   1
  -0.0943066192   11   9   8   2
  0.0000000176   11   9   8   3
  -0.0862245831   11   9   8   4
  -0.0000000101   11   9   8   7
  -0.0020270275   11   9   9   5
  0.0141160960   11   9   9   8
  0.0108437181   11   9   10   1
  -0.0000000138   11   9   10   2
  -0.0886982958   11   9   10   3
  0.0000000173   11   9   10   4
  -0.0769582718   11   9   10   7
  -0.0120125015   11   9   11   2
  0.0000000131   11   9   11   3
  0.0813801307   11   9   11   4
  -0.0000000211   11   9   11   7
  0.0496432388   11   9   11   9
  -1.0950648846   11   10   2   1