 &FCI NORB=  6,NELEC= ,MS0= ,
  ORBSYM=1,2,1,2,1,2,
  ISYM=1,
 /
  -31.5289251779191097568855184   1   1   0   0
  -27.5896212683993482528421737   2   2   0   0
  2.4466652733905727146179743   3   1   0   0
  -26.8419775464161034506105352   3   3   0   0
  -2.8194544375552230697223877   4   2   0   0
  -24.3355728742444306078596128   4   4   0   0
  -1.0873163560439413899416650   5   1   0   0
  -2.1087576379254096003990071   5   3   0   0
  -21.5625073891687186744547944   5   5   0   0
  0.6384317253446756268431272   6   2   0   0
  -2.3239360894992069361819631   6   4   0   0
  -22.8722159708601679994899314   6   6   0   0
  6.8915206754   1   1   1   1
  1.6549908808   2   1   2   1
  5.9015371596   2   2   1   1
  6.1149193120   2   2   2   2
  -0.9160730656   3   1   1   1
  0.2300014087   3   1   2   2
  1.0957812400   3   1   3   1
  1.4840164805   3   2   2   1
  1.5583273302   3   2   3   2
  6.3722274522   3   3   1   1
  5.8365756928   3   3   2   2
  -0.5065786838   3   3   3   1
  6.1505844601   3   3   3   3
  0.4102935548   4   1   2   1
  0.0179016210   4   1   3   2
  0.6399055271   4   1   4   1
  0.7841288944   4   2   1   1
  0.1208928187   4   2   2   2
  -0.5936261070   4   2   3   1
  0.3270313057   4   2   3   3
  0.7042898705   4   2   4   2
  -0.9447065006   4   3   2   1
  -0.8865405865   4   3   3   2
  -0.1735747705   4   3   4   1
  0.9811115722   4   3   4   3
  6.3722274522   4   4   1   1
  5.8365756928   4   4   2   2
  -0.5065786838   4   4   3   1
  6.1505844601   4   4   3   3
  0.3270313057   4   4   4   2
  6.1505844601   4   4   4   4
  0.1780575267   5   1   1   1
  0.2556639611   5   1   2   2
  0.1124883966   5   1   3   1
  -0.0022844674   5   1   3   3
  0.3008088197   5   1   4   2
  -0.0022844674   5   1   4   4
  0.3534905827   5   1   5   1
  0.1911224176   5   2   2   1
  -0.0841654892   5   2   3   2
  0.4403201569   5   2   4   1
  0.3701910593   5   2   4   3
  0.7439820238   5   2   5   2
  0.7841288944   5   3   1   1
  0.1208928187   5   3   2   2
  -0.5936261070   5   3   3   1
  0.3270313057   5   3   3   3
  0.7042898705   5   3   4   2
  0.3270313057   5   3   4   4
  0.3008088197   5   3   5   1
  0.7042898705   5   3   5   3
  1.4840164805   5   4   2   1
  1.5583273302   5   4   3   2
  0.0179016210   5   4   4   1
  -0.8865405865   5   4   4   3
  -0.0841654892   5   4   5   2
  1.5583273302   5   4   5   4
  5.9015371596   5   5   1   1
  6.1149193120   5   5   2   2
  0.2300014087   5   5   3   1
  5.8365756928   5   5   3   3
  0.1208928187   5   5   4   2
  5.8365756928   5   5   4   4
  0.2556639611   5   5   5   1
  0.1208928187   5   5   5   3
  6.1149193120   5   5   5   5
  0.0491194193   6   1   2   1
  -0.0706888469   6   1   3   2
  0.1885987802   6   1   4   1
  -0.4431847886   6   1   4   3
  -0.3005411950   6   1   5   2
  -0.0706888469   6   1   5   4
  0.4943110939   6   1   6   1
  -0.1780575267   6   2   1   1
  -0.2556639611   6   2   2   2
  -0.1124883966   6   2   3   1
  0.0022844674   6   2   3   3
  -0.3008088197   6   2   4   2
  0.0022844674   6   2   4   4
  -0.3534905827   6   2   5   1
  -0.3008088197   6   2   5   3
  -0.2556639611   6   2   5   5
  0.3534905827   6   2   6   2
  -0.4102935548   6   3   2   1
  -0.0179016210   6   3   3   2
  -0.6399055271   6   3   4   1
  0.1735747705   6   3   4   3
  -0.4403201569   6   3   5   2
  -0.0179016210   6   3   5   4
  -0.1885987802   6   3   6   1
  0.6399055271   6   3   6   3
  0.9160730656   6   4   1   1
  -0.2300014087   6   4   2   2
  -1.0957812400   6   4   3   1
  0.5065786838   6   4   3   3
  0.5936261070   6   4   4   2
  0.5065786838   6   4   4   4
  -0.1124883966   6   4   5   1
  0.5936261070   6   4   5   3
  -0.2300014087   6   4   5   5
  0.1124883966   6   4   6   2
  1.0957812400   6   4   6   4
  -1.6549908808   6   5   2   1
  -1.4840164805   6   5   3   2
  -0.4102935548   6   5   4   1
  0.9447065006   6   5   4   3
  -0.1911224176   6   5   5   2
  -1.4840164805   6   5   5   4
  -0.0491194193   6   5   6   1
  0.4102935548   6   5   6   3
  1.6549908808   6   5   6   5
  6.8915206754   6   6   1   1
  5.9015371596   6   6   2   2
  -0.9160730656   6   6   3   1
  6.3722274522   6   6   3   3
  0.7841288944   6   6   4   2
  6.3722274522   6   6   4   4
  0.1780575267   6   6   5   1
  0.7841288944   6   6   5   3
  5.9015371596   6   6   5   5
  -0.1780575267   6   6   6   2
  0.9160730656   6   6   6   4
  6.8915206754   6   6   6   6
  77.3654101135039696   0   0   0   0
