 &FCI NORB= 14,NELEC= ,MS0= ,
  ORBSYM=1,2,3,1,4,2,3,1,4,2,3,1,4,3,
  ISYM=1,
 /
  -66.7602554699731172149768099   1   1   0   0
  -61.1950451528309145032835659   2   2   0   0
  -63.3308740390265043629369757   3   3   0   0
  4.6767594424261424990163505   4   1   0   0
  -57.8433487870371649819389859   4   4   0   0
  -58.2648415426250210202852031   5   5   0   0
  -5.8827239460232370049652673   6   2   0   0
  -61.3110505605415667673696589   6   6   0   0
  3.6837431043083519455194619   7   3   0   0
  -58.2365224511479198099550558   7   7   0   0
  0.5371874568216601364412099   8   1   0   0
  2.1871963693659410843395108   8   4   0   0
  -56.2493916010160290852581966   8   8   0   0
  4.2990183989149750587444032   9   5   0   0
  -56.5188869382845950894989073   9   9   0   0
  0.6290351043717907764118991   10   2   0   0
  3.8275127214046213985909617   10   6   0   0
  -53.4883505970192487666281522   10   10   0   0
  -1.9149715289719664301770763   11   3   0   0
  -2.2624337170226698212616157   11   7   0   0
  -51.0580301456983889352159167   11   11   0   0
  -2.0238057672007374598877050   12   1   0   0
  1.6342230582564920560173505   12   4   0   0
  3.6148433211054786795557447   12   8   0   0
  -56.5501352653260624947506585   12   12   0   0
  0.5734112551733818730070880   13   5   0   0
  -5.6087270574255594368651145   13   9   0   0
  -51.6107178294821693498306558   13   13   0   0
  -1.9123113203911870083828717   14   3   0   0
  0.3981039127031905655584865   14   7   0   0
  -4.5447541999900122888789156   14   11   0   0
  -55.1777044874794739826029399   14   14   0   0
  5.6537385706   1   1   1   1
  1.3023127321   2   1   2   1
  4.9170874527   2   2   1   1
  4.8397053532   2   2   2   2
  0.9528523782   3   1   3   1
  0.4132515359   3   2   3   2
  5.5405890509   3   3   1   1
  4.8273067540   3   3   2   2
  5.4897183622   3   3   3   3
  -0.7322663998   4   1   1   1
  -0.0947625322   4   1   2   2
  -0.6979411863   4   1   3   3
  0.6191074971   4   1   4   1
  0.8637409290   4   2   2   1
  1.1540401806   4   2   4   2
  -0.2072717616   4   3   3   1
  0.2612771544   4   3   4   3
  4.6459364385   4   4   1   1
  4.7327704283   4   4   2   2
  4.5797918665   4   4   3   3
  0.0751689945   4   4   4   1
  4.8172120563   4   4   4   4
  0.4192558087   5   1   3   2
  0.4262346969   5   1   5   1
  0.7061325186   5   2   3   1
  0.0879106990   5   2   4   3
  0.7954227820   5   2   5   2
  1.2357744638   5   3   2   1
  0.8731277875   5   3   4   2
  1.2291795031   5   3   5   3
  0.2737515355   5   4   3   2
  0.2827732622   5   4   5   1
  0.3056159043   5   4   5   4
  4.8527794584   5   5   1   1
  4.8131016528   5   5   2   2
  4.8136807726   5   5   3   3
  -0.0547988143   5   5   4   1
  4.6188020924   5   5   4   4
  4.9131670595   5   5   5   5
  0.4139721693   6   1   2   1
  -0.2307967949   6   1   4   2
  0.3324655786   6   1   5   3
  0.5747227008   6   1   6   1
  0.8677065273   6   2   1   1
  0.1894936627   6   2   2   2
  0.8008319567   6   2   3   3
  -0.6700970841   6   2   4   1
  -0.1064216941   6   2   4   4
  0.2038724848   6   2   5   5
  0.8178814288   6   2   6   2
  0.1064651301   6   3   3   2
  0.1023177691   6   3   5   1
  -0.0491123041   6   3   5   4
  0.1436331220   6   3   6   3
  -1.2710715267   6   4   2   1
  -1.1496853757   6   4   4   2
  -1.1714153638   6   4   5   3
  -0.1542384850   6   4   6   1
  1.4791765294   6   4   6   4
  0.1443092899   6   5   3   1
  -0.1446272660   6   5   4   3
  -0.0085708938   6   5   5   2
  0.1331258462   6   5   6   5
  5.2808732472   6   6   1   1
  4.9320527261   6   6   2   2
  5.1160832237   6   6   3   3
  -0.3657373038   6   6   4   1
  4.8133302620   6   6   4   4
  4.7802607434   6   6   5   5
  0.4553519275   6   6   6   2
  5.2442213029   6   6   6   6
  -0.2161669020   7   1   3   1
  0.2955458978   7   1   4   3
  0.1229213198   7   1   5   2
  -0.1369859126   7   1   6   5
  0.3476681297   7   1   7   1
  0.3139585422   7   2   3   2
  0.3245405861   7   2   5   1
  0.3140873134   7   2   5   4
  -0.0233718711   7   2   6   3
  0.3334257540   7   2   7   2
  -0.6359235310   7   3   1   1
  0.0147556238   7   3   2   2
  -0.6391553939   7   3   3   3
  0.6175008612   7   3   4   1
  0.0437857903   7   3   4   4
  0.1267162530   7   3   5   5
  -0.5521612983   7   3   6   2
  -0.2897128034   7   3   6   6
  0.7617131438   7   3   7   3
  0.6867301263   7   4   3   1
  -0.0456217802   7   4   4   3
  0.6140724338   7   4   5   2
  -0.0012329219   7   4   6   5
  -0.0619046660   7   4   7   1
  0.5945763306   7   4   7   4
  1.0402100168   7   5   2   1
  0.9851302181   7   5   4   2
  1.0827699976   7   5   5   3
  0.0555985531   7   5   6   1
  -1.0874636153   7   5   6   4
  1.0717897749   7   5   7   5
  -0.1665617443   7   6   3   2
  -0.1659776088   7   6   5   1
  -0.1436138798   7   6   5   4
  -0.0162210677   7   6   6   3
  -0.1440249807   7   6   7   2
  0.1038269224   7   6   7   6
  5.1584857711   7   7   1   1
  4.7044163784   7   7   2   2
  5.1680822962   7   7   3   3
  -0.4350411687   7   7   4   1
  4.5825015893   7   7   4   4
  4.7115062557   7   7   5   5
  0.4620278859   7   7   6   2
  4.8556628693   7   7   6   6
  -0.4451125451   7   7   7   3
  5.0058233530   7   7   7   7
  -0.0053477091   8   1   1   1
  -0.1196086080   8   1   2   2
  0.0347737204   8   1   3   3
  -0.0933265634   8   1   4   1
  0.0287329282   8   1   4   4
  -0.2160198385   8   1   5   5
  -0.0425431044   8   1   6   2
  -0.0351666271   8   1   6   6
  -0.2732287091   8   1   7   3
  0.0788132918   8   1   7   7
  0.2366440773   8   1   8   1
  -0.2841346568   8   2   2   1
  0.0607626656   8   2   4   2
  -0.3227913382   8   2   5   3
  -0.2866375675   8   2   6   1
  0.0529761615   8   2   6   4
  -0.2014102857   8   2   7   5
  0.2811193270   8   2   8   2
  0.1233777322   8   3   3   1
  -0.2322269218   8   3   4   3
  -0.1566253802   8   3   5   2
  0.0382482303   8   3   6   5
  -0.3080112555   8   3   7   1
  0.0765469992   8   3   7   4
  0.3601962384   8   3   8   3
  -0.4076880896   8   4   1   1
  0.0215259360   8   4   2   2
  -0.4675419032   8   4   3   3
  0.4049829770   8   4   4   1
  0.1867932008   8   4   4   4
  -0.0754438300   8   4   5   5
  -0.4523873125   8   4   6   2
  -0.0340828419   8   4   6   6
  0.3865907049   8   4   7   3
  -0.3359699935   8   4   7   7
  -0.0379261147   8   4   8   1
  0.4153157570   8   4   8   4
  -0.3265702260   8   5   3   2
  -0.3382015532   8   5   5   1
  -0.1954056606   8   5   5   4
  -0.0947808257   8   5   6   3
  -0.2496541087   8   5   7   2
  0.0766694920   8   5   7   6
  0.3492599697   8   5   8   5
  -0.6911192873   8   6   2   1
  -0.6281358414   8   6   4   2
  -0.6357282906   8   6   5   3
  -0.0816369631   8   6   6   1
  0.8076731339   8   6   6   4
  -0.5908506407   8   6   7   5
  0.0253237196   8   6   8   2
  0.4410633258   8   6   8   6
  -0.8122235777   8   7   3   1
  0.2291239111   8   7   4   3
  -0.5408070180   8   7   5   2
  -0.1385443318   8   7   6   5
  0.2505046157   8   7   7   1
  -0.5718970935   8   7   7   4
  -0.1752090904   8   7   8   3
  0.8275778965   8   7   8   7
  5.1584857711   8   8   1   1
  4.7044163784   8   8   2   2
  5.1680822962   8   8   3   3
  -0.4350411687   8   8   4   1
  4.5825015893   8   8   4   4
  4.7115062557   8   8   5   5
  0.4620278859   8   8   6   2
  4.8556628693   8   8   6   6
  -0.4451125451   8   8   7   3
  5.0058233530   8   8   7   7
  0.0788132918   8   8   8   1
  -0.3359699935   8   8   8   4
  5.0058233530   8   8   8   8
  -0.1449376409   9   1   3   2
  -0.1397999045   9   1   5   1
  0.0574936460   9   1   5   4
  -0.1863627598   9   1   6   3
  0.0234987871   9   1   7   2
  0.0237731702   9   1   7   6
  0.1289063492   9   1   8   5
  0.2419480885   9   1   9   1
  -0.2227512732   9   2   3   1
  0.2015292839   9   2   4   3
  -0.0096227958   9   2   5   2
  -0.1874772358   9   2   6   5
  0.1897992833   9   2   7   1
  -0.0150202826   9   2   7   4
  -0.0496565833   9   2   8   3
  0.2101106006   9   2   8   7
  0.2646107331   9   2   9   2
  -0.3276734543   9   3   2   1
  0.1742672658   9   3   4   2
  -0.2654596139   9   3   5   3
  -0.4471859261   9   3   6   1
  0.1246644706   9   3   6   4
  -0.0503099940   9   3   7   5
  0.2255258365   9   3   8   2
  0.0660208112   9   3   8   6
  0.3480139855   9   3   9   3
  0.2943106671   9   4   3   2
  0.2929530051   9   4   5   1
  0.2537012921   9   4   5   4
  0.0291176031   9   4   6   3
  0.2536258211   9   4   7   2
  -0.1855041930   9   4   7   6
  -0.1318227355   9   4   8   5
  -0.0425612932   9   4   9   1
  0.3315469573   9   4   9   4
  -0.6140505196   9   5   1   1
  -0.1337470049   9   5   2   2
  -0.5680072670   9   5   3   3
  0.4744800087   9   5   4   1
  0.0787277449   9   5   4   4
  -0.1475035271   9   5   5   5
  -0.5808932202   9   5   6   2
  -0.3189298469   9   5   6   6
  0.3887568257   9   5   7   3
  -0.3281223595   9   5   7   7
  0.0328977979   9   5   8   1
  0.3237997644   9   5   8   4
  -0.3281223595   9   5   8   8
  0.4126737507   9   5   9   5
  -0.6473843576   9   6   3   1
  0.0565330011   9   6   4   3
  -0.5723383891   9   6   5   2
  -0.0463996493   9   6   6   5
  0.0537100752   9   6   7   1
  -0.5143743602   9   6   7   4
  -0.0164439161   9   6   8   3
  0.4133485211   9   6   8   7
  0.0810445629   9   6   9   2
  0.5935553065   9   6   9   6
  0.6911192873   9   7   2   1
  0.6281358414   9   7   4   2
  0.6357282906   9   7   5   3
  0.0816369631   9   7   6   1
  -0.8076731339   9   7   6   4
  0.5908506407   9   7   7   5
  -0.0253237196   9   7   8   2
  -0.4410633258   9   7   8   6
  -0.0660208112   9   7   9   3
  0.4410633258   9   7   9   7
  0.1665617443   9   8   3   2
  0.1659776088   9   8   5   1
  0.1436138798   9   8   5   4
  0.0162210677   9   8   6   3
  0.1440249807   9   8   7   2
  -0.1038269224   9   8   7   6
  -0.0766694920   9   8   8   5
  -0.0237731702   9   8   9   1
  0.1855041930   9   8   9   4
  0.1038269224   9   8   9   8
  5.2808732472   9   9   1   1
  4.9320527261   9   9   2   2
  5.1160832237   9   9   3   3
  -0.3657373038   9   9   4   1
  4.8133302620   9   9   4   4
  4.7802607434   9   9   5   5
  0.4553519275   9   9   6   2
  5.2442213029   9   9   6   6
  -0.2897128034   9   9   7   3
  4.8556628693   9   9   7   7
  -0.0351666271   9   9   8   1
  -0.0340828419   9   9   8   4
  4.8556628693   9   9   8   8
  -0.3189298469   9   9   9   5
  5.2442213029   9   9   9   9
  -0.0482993816   10   1   2   1
  0.0455744194   10   1   4   2
  0.0484058412   10   1   5   3
  -0.1061554622   10   1   6   1
  0.1124107181   10   1   6   4
  0.1164602985   10   1   7   5
  -0.0846245909   10   1   8   2
  0.0632201157   10   1   8   6
  0.0803262770   10   1   9   3
  -0.0632201157   10   1   9   7
  0.1591034179   10   1   10   1
  -0.0688215445   10   2   1   1
  -0.0332220076   10   2   2   2
  0.0027146374   10   2   3   3
  0.0390997551   10   2   4   1
  -0.1680624408   10   2   4   4
  0.1506566021   10   2   5   5
  0.0437565383   10   2   6   2
  -0.2070992362   10   2   6   6
  0.1466909438   10   2   7   3
  0.0232223998   10   2   7   7
  -0.1408407859   10   2   8   1
  -0.1531398076   10   2   8   4
  0.0232223998   10   2   8   8
  -0.0362111834   10   2   9   5
  -0.2070992362   10   2   9   9
  0.2675680558   10   2   10   2
  0.2091629857   10   3   3   2
  0.2223062374   10   3   5   1
  0.1875613781   10   3   5   4
  -0.0032539798   10   3   6   3
  0.2211182583   10   3   7   2
  -0.0456543288   10   3   7   6
  -0.2490028655   10   3   8   5
  -0.0007869954   10   3   9   1
  0.0768058378   10   3   9   4
  0.0456543288   10   3   9   8
  0.2216630550   10   3   10   3
  0.0593121067   10   4   2   1
  -0.3131980113   10   4   4   2
  0.0927459039   10   4   5   3
  0.3069441762   10   4   6   1
  0.2121984154   10   4   6   4
  -0.0402030032   10   4   7   5
  -0.2657633553   10   4   8   2
  0.1191893797   10   4   8   6
  -0.2398901182   10   4   9   3
  -0.1191893797   10   4   9   7
  0.0670249555   10   4   10   1
  0.3085918959   10   4   10   4
  0.4260837015   10   5   3   1
  0.1025165297   10   5   4   3
  0.5446090214   10   5   5   2
  0.0132873851   10   5   6   5
  0.1531792411   10   5   7   1
  0.3508201422   10   5   7   4
  -0.2166692619   10   5   8   3
  -0.4238979186   10   5   8   7
  -0.0335985834   10   5   9   2
  -0.2384732145   10   5   9   6
  0.5366042882   10   5   10   5
  -0.6140505196   10   6   1   1
  -0.1337470049   10   6   2   2
  -0.5680072670   10   6   3   3
  0.4744800087   10   6   4   1
  0.0787277449   10   6   4   4
  -0.1475035271   10   6   5   5
  -0.5808932202   10   6   6   2
  -0.3189298469   10   6   6   6
  0.3887568257   10   6   7   3
  -0.3281223595   10   6   7   7
  0.0328977979   10   6   8   1
  0.3237997644   10   6   8   4
  -0.3281223595   10   6   8   8
  0.4126737507   10   6   9   5
  -0.3189298469   10   6   9   9
  -0.0362111834   10   6   10   2
  0.4126737507   10   6   10   6
  0.3265702260   10   7   3   2
  0.3382015532   10   7   5   1
  0.1954056606   10   7   5   4
  0.0947808257   10   7   6   3
  0.2496541087   10   7   7   2
  -0.0766694920   10   7   7   6
  -0.3492599697   10   7   8   5
  -0.1289063492   10   7   9   1
  0.1318227355   10   7   9   4
  0.0766694920   10   7   9   8
  0.2490028655   10   7   10   3
  0.3492599697   10   7   10   7
  -1.0402100168   10   8   2   1
  -0.9851302181   10   8   4   2
  -1.0827699976   10   8   5   3
  -0.0555985531   10   8   6   1
  1.0874636153   10   8   6   4
  -1.0717897749   10   8   7   5
  0.2014102857   10   8   8   2
  0.5908506407   10   8   8   6
  0.0503099940   10   8   9   3
  -0.5908506407   10   8   9   7
  -0.1164602985   10   8   10   1
  0.0402030032   10   8   10   4
  1.0717897749   10   8   10   8
  0.1443092899   10   9   3   1
  -0.1446272660   10   9   4   3
  -0.0085708938   10   9   5   2
  0.1331258462   10   9   6   5
  -0.1369859126   10   9   7   1
  -0.0012329219   10   9   7   4
  0.0382482303   10   9   8   3
  -0.1385443318   10   9   8   7
  -0.1874772358   10   9   9   2
  -0.0463996493   10   9   9   6
  0.0132873851   10   9   10   5
  0.1331258462   10   9   10   9
  4.8527794584   10   10   1   1
  4.8131016528   10   10   2   2
  4.8136807726   10   10   3   3
  -0.0547988143   10   10   4   1
  4.6188020924   10   10   4   4
  4.9131670595   10   10   5   5
  0.2038724848   10   10   6   2
  4.7802607434   10   10   6   6
  0.1267162530   10   10   7   3
  4.7115062557   10   10   7   7
  -0.2160198385   10   10   8   1
  -0.0754438300   10   10   8   4
  4.7115062557   10   10   8   8
  -0.1475035271   10   10   9   5
  4.7802607434   10   10   9   9
  0.1506566021   10   10   10   2
  -0.1475035271   10   10   10   6
  4.9131670595   10   10   10   10
  0.0669130027   11   1   3   1
  -0.0088415316   11   1   4   3
  0.0721557857   11   1   5   2
  0.0836918149   11   1   6   5
  0.0295821541   11   1   7   1
  -0.0240079300   11   1   7   4
  -0.1264363601   11   1   8   3
  -0.0380674606   11   1   8   7
  -0.1199770001   11   1   9   2
  -0.0366451043   11   1   9   6
  0.1102173884   11   1   10   5
  0.0836918149   11   1   10   9
  0.1176303492   11   1   11   1
  0.0496153264   11   2   3   2
  0.0518725693   11   2   5   1
  -0.0979080790   11   2   5   4
  0.1302759754   11   2   6   3
  -0.0567879776   11   2   7   2
  0.0586868835   11   2   7   6
  -0.1387935727   11   2   8   5
  -0.1687818693   11   2   9   1
  -0.1068730514   11   2   9   4
  -0.0586868835   11   2   9   8
  0.0549122440   11   2   10   3
  0.1387935727   11   2   10   7
  0.2122015111   11   2   11   2
  0.2216239299   11   3   1   1
  0.1326180007   11   3   2   2
  0.1765234344   11   3   3   3
  -0.1018509283   11   3   4   1
  -0.0477954060   11   3   4   4
  0.2054995018   11   3   5   5
  0.2359753066   11   3   6   2
  0.1387170100   11   3   6   6
  0.0561950873   11   3   7   3
  0.0601121760   11   3   7   7
  -0.1795966448   11   3   8   1
  -0.0872518219   11   3   8   4
  0.0601121760   11   3   8   8
  -0.1695263542   11   3   9   5
  0.1387170100   11   3   9   9
  0.1121817284   11   3   10   2
  -0.1695263542   11   3   10   6
  0.2054995018   11   3   10   10
  0.1875099200   11   3   11   3
  -0.0541289048   11   4   3   1
  -0.1687059135   11   4   4   3
  -0.2306725278   11   4   5   2
  0.1386570406   11   4   6   5
  -0.1690880488   11   4   7   1
  -0.1768793001   11   4   7   4
  0.0758234416   11   4   8   3
  -0.1053867032   11   4   8   7
  -0.1892149669   11   4   9   2
  0.2344583605   11   4   9   6
  -0.0160420488   11   4   10   5
  0.1386570406   11   4   10   9
  0.0685146664   11   4   11   1
  0.3261979569   11   4   11   4
  0.0593121067   11   5   2   1
  -0.3131980113   11   5   4   2
  0.0927459039   11   5   5   3
  0.3069441762   11   5   6   1
  0.2121984154   11   5   6   4
  -0.0402030032   11   5   7   5
  -0.2657633553   11   5   8   2
  0.1191893797   11   5   8   6
  -0.2398901182   11   5   9   3
  -0.1191893797   11   5   9   7
  0.0670249555   11   5   10   1
  0.3085918959   11   5   10   4
  0.0402030032   11   5   10   8
  0.3085918959   11   5   11   5
  0.2943106671   11   6   3   2
  0.2929530051   11   6   5   1
  0.2537012921   11   6   5   4
  0.0291176031   11   6   6   3
  0.2536258211   11   6   7   2
  -0.1855041930   11   6   7   6
  -0.1318227355   11   6   8   5
  -0.0425612932   11   6   9   1
  0.3315469573   11   6   9   4
  0.1855041930   11   6   9   8
  0.0768058378   11   6   10   3
  0.1318227355   11   6   10   7
  -0.1068730514   11   6   11   2
  0.3315469573   11   6   11   6
  0.4076880896   11   7   1   1
  -0.0215259360   11   7   2   2
  0.4675419032   11   7   3   3
  -0.4049829770   11   7   4   1
  -0.1867932008   11   7   4   4
  0.0754438300   11   7   5   5
  0.4523873125   11   7   6   2
  0.0340828419   11   7   6   6
  -0.3865907049   11   7   7   3
  0.3359699935   11   7   7   7
  0.0379261147   11   7   8   1
  -0.4153157570   11   7   8   4
  0.3359699935   11   7   8   8
  -0.3237997644   11   7   9   5
  0.0340828419   11   7   9   9
  0.1531398076   11   7   10   2
  -0.3237997644   11   7   10   6
  0.0754438300   11   7   10   10
  0.0872518219   11   7   11   3
  0.4153157570   11   7   11   7
  -0.6867301263   11   8   3   1
  0.0456217802   11   8   4   3
  -0.6140724338   11   8   5   2
  0.0012329219   11   8   6   5
  0.0619046660   11   8   7   1
  -0.5945763306   11   8   7   4
  -0.0765469992   11   8   8   3
  0.5718970935   11   8   8   7
  0.0150202826   11   8   9   2
  0.5143743602   11   8   9   6
  -0.3508201422   11   8   10   5
  0.0012329219   11   8   10   9
  0.0240079300   11   8   11   1
  0.1768793001   11   8   11   4
  0.5945763306   11   8   11   8
  -1.2710715267   11   9   2   1
  -1.1496853757   11   9   4   2
  -1.1714153638   11   9   5   3
  -0.1542384850   11   9   6   1
  1.4791765294   11   9   6   4
  -1.0874636153   11   9   7   5
  0.0529761615   11   9   8   2
  0.8076731339   11   9   8   6
  0.1246644706   11   9   9   3
  -0.8076731339   11   9   9   7
  0.1124107181   11   9   10   1
  0.2121984154   11   9   10   4
  1.0874636153   11   9   10   8
  0.2121984154   11   9   11   5
  1.4791765294   11   9   11   9
  0.2737515355   11   10   3   2
  0.2827732622   11   10   5   1
  0.3056159043   11   10   5   4
  -0.0491123041   11   10   6   3
  0.3140873134   11   10   7   2
  -0.1436138798   11   10   7   6
  -0.1954056606   11   10   8   5
  0.0574936460   11   10   9   1
  0.2537012921   11   10   9   4
  0.1436138798   11   10   9   8
  0.1875613781   11   10   10   3
  0.1954056606   11   10   10   7
  -0.0979080790   11   10   11   2
  0.2537012921   11   10   11   6
  0.3056159043   11   10   11   10
  4.6459364385   11   11   1   1
  4.7327704283   11   11   2   2
  4.5797918665   11   11   3   3
  0.0751689945   11   11   4   1
  4.8172120563   11   11   4   4
  4.6188020924   11   11   5   5
  -0.1064216941   11   11   6   2
  4.8133302620   11   11   6   6
  0.0437857903   11   11   7   3
  4.5825015893   11   11   7   7
  0.0287329282   11   11   8   1
  0.1867932008   11   11   8   4
  4.5825015893   11   11   8   8
  0.0787277449   11   11   9   5
  4.8133302620   11   11   9   9
  -0.1680624408   11   11   10   2
  0.0787277449   11   11   10   6
  4.6188020924   11   11   10   10
  -0.0477954060   11   11   11   3
  -0.1867932008   11   11   11   7
  4.8172120563   11   11   11   11
  0.2162786618   12   1   1   1
  0.1718825274   12   1   2   2
  0.0962362813   12   1   3   3
  -0.0654007412   12   1   4   1
  0.1290998846   12   1   4   4
  0.0722079936   12   1   5   5
  0.1261840683   12   1   6   2
  0.3175699269   12   1   6   6
  0.0046153703   12   1   7   3
  -0.0192460037   12   1   7   7
  -0.0745041228   12   1   8   1
  0.1172629350   12   1   8   4
  -0.0192460037   12   1   8   8
  -0.0867645712   12   1   9   5
  0.3175699269   12   1   9   9
  -0.1408372846   12   1   10   2
  -0.0867645712   12   1   10   6
  0.0722079936   12   1   10   10
  0.0842240541   12   1   11   3
  -0.1172629350   12   1   11   7
  0.1290998846   12   1   11   11
  0.2314294961   12   1   12   1
  0.1578946911   12   2   2   1
  0.0264181448   12   2   4   2
  0.0575761608   12   2   5   3
  0.1410484405   12   2   6   1
  -0.2165097002   12   2   6   4
  -0.0265534626   12   2   7   5
  0.0573918021   12   2   8   2
  -0.1197593106   12   2   8   6
  -0.1079958558   12   2   9   3
  0.1197593106   12   2   9   7
  -0.1598015651   12   2   10   1
  -0.0588741887   12   2   10   4
  0.0265534626   12   2   10   8
  -0.0588741887   12   2   11   5
  -0.2165097002   12   2   11   9
  0.1698049013   12   2   12   2
  -0.4486394022   12   3   3   1
  0.0864846920   12   3   4   3
  -0.3367909431   12   3   5   2
  -0.0238604166   12   3   6   5
  0.1081051250   12   3   7   1
  -0.3661503976   12   3   7   4
  -0.1123633160   12   3   8   3
  0.5082871947   12   3   8   7
  0.0428352597   12   3   9   2
  0.1949000171   12   3   9   6
  -0.2928484622   12   3   10   5
  -0.0238604166   12   3   10   9
  0.0245812405   12   3   11   1
  -0.0464709358   12   3   11   4
  0.3661503976   12   3   11   8
  0.3597572041   12   3   12   3
  -0.2216239299   12   4   1   1
  -0.1326180007   12   4   2   2
  -0.1765234344   12   4   3   3
  0.1018509283   12   4   4   1
  0.0477954060   12   4   4   4
  -0.2054995018   12   4   5   5
  -0.2359753066   12   4   6   2
  -0.1387170100   12   4   6   6
  -0.0561950873   12   4   7   3
  -0.0601121760   12   4   7   7
  0.1795966448   12   4   8   1
  0.0872518219   12   4   8   4
  -0.0601121760   12   4   8   8
  0.1695263542   12   4   9   5
  -0.1387170100   12   4   9   9
  -0.1121817284   12   4   10   2
  0.1695263542   12   4   10   6
  -0.2054995018   12   4   10   10
  -0.1875099200   12   4   11   3
  -0.0872518219   12   4   11   7
  0.0477954060   12   4   11   11
  -0.0842240541   12   4   12   1
  0.1875099200   12   4   12   4
  -0.2091629857   12   5   3   2
  -0.2223062374   12   5   5   1
  -0.1875613781   12   5   5   4
  0.0032539798   12   5   6   3
  -0.2211182583   12   5   7   2
  0.0456543288   12   5   7   6
  0.2490028655   12   5   8   5
  0.0007869954   12   5   9   1
  -0.0768058378   12   5   9   4
  -0.0456543288   12   5   9   8
  -0.2216630550   12   5   10   3
  -0.2490028655   12   5   10   7
  -0.0549122440   12   5   11   2
  -0.0768058378   12   5   11   6
  -0.1875613781   12   5   11   10
  0.2216630550   12   5   12   5
  0.3276734543   12   6   2   1
  -0.1742672658   12   6   4   2
  0.2654596139   12   6   5   3
  0.4471859261   12   6   6   1
  -0.1246644706   12   6   6   4
  0.0503099940   12   6   7   5
  -0.2255258365   12   6   8   2
  -0.0660208112   12   6   8   6
  -0.3480139855   12   6   9   3
  0.0660208112   12   6   9   7
  -0.0803262770   12   6   10   1
  0.2398901182   12   6   10   4
  -0.0503099940   12   6   10   8
  0.2398901182   12   6   11   5
  -0.1246644706   12   6   11   9
  0.1079958558   12   6   12   2
  0.3480139855   12   6   12   6
  0.1233777322   12   7   3   1
  -0.2322269218   12   7   4   3
  -0.1566253802   12   7   5   2
  0.0382482303   12   7   6   5
  -0.3080112555   12   7   7   1
  0.0765469992   12   7   7   4
  0.3601962384   12   7   8   3
  -0.1752090904   12   7   8   7
  -0.0496565833   12   7   9   2
  -0.0164439161   12   7   9   6
  -0.2166692619   12   7   10   5
  0.0382482303   12   7   10   9
  -0.1264363601   12   7   11   1
  0.0758234416   12   7   11   4
  -0.0765469992   12   7   11   8
  -0.1123633160   12   7   12   3
  0.3601962384   12   7   12   7
  -0.6359235310   12   8   1   1
  0.0147556238   12   8   2   2
  -0.6391553939   12   8   3   3
  0.6175008612   12   8   4   1
  0.0437857903   12   8   4   4
  0.1267162530   12   8   5   5
  -0.5521612983   12   8   6   2
  -0.2897128034   12   8   6   6
  0.7617131438   12   8   7   3
  -0.4451125451   12   8   7   7
  -0.2732287091   12   8   8   1
  0.3865907049   12   8   8   4
  -0.4451125451   12   8   8   8
  0.3887568257   12   8   9   5
  -0.2897128034   12   8   9   9
  0.1466909438   12   8   10   2
  0.3887568257   12   8   10   6
  0.1267162530   12   8   10   10
  0.0561950873   12   8   11   3
  -0.3865907049   12   8   11   7
  0.0437857903   12   8   11   11
  0.0046153703   12   8   12   1
  -0.0561950873   12   8   12   4
  0.7617131438   12   8   12   8
  -0.1064651301   12   9   3   2
  -0.1023177691   12   9   5   1
  0.0491123041   12   9   5   4
  -0.1436331220   12   9   6   3
  0.0233718711   12   9   7   2
  0.0162210677   12   9   7   6
  0.0947808257   12   9   8   5
  0.1863627598   12   9   9   1
  -0.0291176031   12   9   9   4
  -0.0162210677   12   9   9   8
  0.0032539798   12   9   10   3
  -0.0947808257   12   9   10   7
  -0.1302759754   12   9   11   2
  -0.0291176031   12   9   11   6
  0.0491123041   12   9   11   10
  -0.0032539798   12   9   12   5
  0.1436331220   12   9   12   9
  -1.2357744638   12   10   2   1
  -0.8731277875   12   10   4   2
  -1.2291795031   12   10   5   3
  -0.3324655786   12   10   6   1
  1.1714153638   12   10   6   4
  -1.0827699976   12   10   7   5
  0.3227913382   12   10   8   2
  0.6357282906   12   10   8   6
  0.2654596139   12   10   9   3
  -0.6357282906   12   10   9   7
  -0.0484058412   12   10   10   1
  -0.0927459039   12   10   10   4
  1.0827699976   12   10   10   8
  -0.0927459039   12   10   11   5
  1.1714153638   12   10   11   9
  -0.0575761608   12   10   12   2
  -0.2654596139   12   10   12   6
  1.2291795031   12   10   12   10
  0.2072717616   12   11   3   1
  -0.2612771544   12   11   4   3
  -0.0879106990   12   11   5   2
  0.1446272660   12   11   6   5
  -0.2955458978   12   11   7   1
  0.0456217802   12   11   7   4
  0.2322269218   12   11   8   3
  -0.2291239111   12   11   8   7
  -0.2015292839   12   11   9   2
  -0.0565330011   12   11   9   6
  -0.1025165297   12   11   10   5
  0.1446272660   12   11   10   9
  0.0088415316   12   11   11   1
  0.1687059135   12   11   11   4
  -0.0456217802   12   11   11   8
  -0.0864846920   12   11   12   3
  0.2322269218   12   11   12   7
  0.2612771544   12   11   12   11
  5.5405890509   12   12   1   1
  4.8273067540   12   12   2   2
  5.4897183622   12   12   3   3
  -0.6979411863   12   12   4   1
  4.5797918665   12   12   4   4
  4.8136807726   12   12   5   5
  0.8008319567   12   12   6   2
  5.1160832237   12   12   6   6
  -0.6391553939   12   12   7   3
  5.1680822962   12   12   7   7
  0.0347737204   12   12   8   1
  -0.4675419032   12   12   8   4
  5.1680822962   12   12   8   8
  -0.5680072670   12   12   9   5
  5.1160832237   12   12   9   9
  0.0027146374   12   12   10   2
  -0.5680072670   12   12   10   6
  4.8136807726   12   12   10   10
  0.1765234344   12   12   11   3
  0.4675419032   12   12   11   7
  4.5797918665   12   12   11   11
  0.0962362813   12   12   12   1
  -0.1765234344   12   12   12   4
  -0.6391553939   12   12   12   8
  5.4897183622   12   12   12   12
  -0.0415216946   13   1   3   2
  -0.0321920962   13   1   5   1
  0.0220713585   13   1   5   4
  -0.0681489615   13   1   6   3
  0.0306660880   13   1   7   2
  0.0539900841   13   1   7   6
  -0.0485990302   13   1   8   5
  0.0875520365   13   1   9   1
  -0.0991716878   13   1   9   4
  -0.0539900841   13   1   9   8
  0.0926939014   13   1   10   3
  0.0485990302   13   1   10   7
  0.0222620697   13   1   11   2
  -0.0991716878   13   1   11   6
  0.0220713585   13   1   11   10
  -0.0926939014   13   1   12   5
  0.0681489615   13   1   12   9
  0.1158519915   13   1   13   1
  -0.0657323995   13   2   3   1
  0.0457247288   13   2   4   3
  -0.0047268111   13   2   5   2
  0.0155759903   13   2   6   5
  0.0719895266   13   2   7   1
  -0.0734182281   13   2   7   4
  -0.1094982337   13   2   8   3
  -0.0464650619   13   2   8   7
  -0.0218335794   13   2   9   2
  0.1582304144   13   2   9   6
  0.1599629741   13   2   10   5
  0.0155759903   13   2   10   9
  0.0580798096   13   2   11   1
  0.1395490132   13   2   11   4
  0.0734182281   13   2   11   8
  -0.0595032805   13   2   12   3
  -0.1094982337   13   2   12   7
  -0.0457247288   13   2   12   11
  0.1628037135   13   2   13   2
  -0.1578946911   13   3   2   1
  -0.0264181448   13   3   4   2
  -0.0575761608   13   3   5   3
  -0.1410484405   13   3   6   1
  0.2165097002   13   3   6   4
  0.0265534626   13   3   7   5
  -0.0573918021   13   3   8   2
  0.1197593106   13   3   8   6
  0.1079958558   13   3   9   3
  -0.1197593106   13   3   9   7
  0.1598015651   13   3   10   1
  0.0588741887   13   3   10   4
  -0.0265534626   13   3   10   8
  0.0588741887   13   3   11   5
  0.2165097002   13   3   11   9
  -0.1698049013   13   3   12   2
  -0.1079958558   13   3   12   6