 &FCI NORB= 26,NELEC= ,MS0= ,
  ORBSYM=1,2,1,2,3,1,4,3,2,1,4,3,4,2,1,2,3,4,1,2,3,1,4,3,4,3,
  ISYM=1,
 /
  -93.8229053369915391158428974   1   1   0   0
  -0.0000000561972556267775758   2   1   0   0
  -88.3395241613640394007234136   2   2   0   0
  -5.2252060435503757673814107   3   1   0   0
  0.0000000269295039601047392   3   2   0   0
  -86.1619698044817710069764871   3   3   0   0
  0.0000000276113345520911935   4   1   0   0
  -6.9434074184827254683227693   4   2   0   0
  -0.0000000271553726172157894   4   3   0   0
  -84.5263536978384166786781861   4   4   0   0
  -90.3788771007004072544077644   5   5   0   0
  1.6705989612407701194740639   6   1   0   0
  -0.0000000222728597787380522   6   2   0   0
  -7.9249823310615354898800433   6   3   0   0
  0.0000000701307141248719290   6   4   0   0
  -82.8543546261815180287158000   6   6   0   0
  0.0000002239635111811466572   7   5   0   0
  -85.0147497381592671672478900   7   7   0   0
  -4.8924307376570856931152775   8   5   0   0
  -0.0000000881852716405617798   8   7   0   0
  -82.7859235692388750749159954   8   8   0   0
  2.4288414504443496255703394   9   2   0   0
  -0.0000000123398655738071739   9   3   0   0
  -8.7817052984257593095662742   9   4   0   0
  -0.0000001488547782813043341   9   6   0   0
  -80.9198987714603248377898126   9   9   0   0
  0.5888501062293882704068437   10   1   0   0
  0.0000001222944463474817667   10   2   0   0
  -2.4089023549701469306683066   10   3   0   0
  -0.0000004004042160055121258   10   4   0   0
  8.4513817817623717587594001   10   6   0   0
  0.0000008972270881812960397   10   9   0   0
  -87.4412250038173652910700184   10   10   0   0
  0.0000000903534282947759948   11   5   0   0
  6.3549717264356671009295496   11   7   0   0
  -0.0000000637957008331468955   11   8   0   0
  -81.4435210227102857061254326   11   11   0   0
  1.3263472599753194369753828   12   5   0   0
  0.0000000507724891019023516   12   7   0   0
  -6.6564933298247250803569841   12   8   0   0
  0.0000000861759383852245264   12   11   0   0
  -81.0748200136434036267019110   12   12   0   0
  -0.0000000273755298429989580   13   5   0   0
  -1.4434274405359510673463319   13   7   0   0
  0.0000000301421876347518491   13   8   0   0
  -5.5930569714802205183445949   13   11   0   0
  -0.0000001279707723123024721   13   12   0   0
  -84.2043621378937245935958344   13   13   0   0
  -0.2861436985243435149328661   14   2   0   0
  -0.0000000148135782529479343   14   3   0   0
  0.7560895142251609080119579   14   4   0   0
  0.0000002107453422883764915   14   6   0   0
  -2.7178289678699889542201618   14   9   0   0
  -0.0000005350170805273890551   14   10   0   0
  -83.3909082218602861757972278   14   14   0   0
  0.1869433461207311575336121   15   1   0   0
  -0.6526371916159752206709754   15   3   0   0
  0.0000001334994399471156612   15   4   0   0
  0.6249266800372570429544794   15   6   0   0
  0.0000000567360731729138479   15   9   0   0
  4.6669152967076890092812391   15   10   0   0
  0.0000000902203579622451457   15   14   0   0
  -78.6868684010355821101256879   15   15   0   0
  -0.4149660376923232085744075   16   2   0   0
  -0.0000000752840341178284689   16   3   0   0
  -0.8042422226345713465178733   16   4   0   0
  -0.0000000887165323426586383   16   6   0   0
  -3.7138498444517433760836411   16   9   0   0
  -0.0000003043226257659625844   16   10   0   0
  5.5058913925427557245484422   16   14   0   0
  0.0000000487673750271255813   16   15   0   0
  -77.4135063192037478074780665   16   16   0   0
  -0.4470017612538437767888411   17   5   0   0
  0.0000000967040046928602237   17   7   0   0
  1.7853729700568949922967477   17   8   0   0
  0.0000003041167853101711671   17   11   0   0
  -5.0352676667484459471779701   17   12   0   0
  -0.0000003087400386458938328   17   13   0   0
  -82.6374747764380259695826680   17   17   0   0
  -0.0000000131327582142404253   18   5   0   0
  -1.3852085703720202758404412   18   7   0   0
  -0.0000000203463270675996455   18   8   0   0
  -4.1039024694897214828870347   18   11   0   0
  -0.0000001427208797810664009   18   12   0   0
  2.7700990133195944054023130   18   13   0   0
  -0.0000009412483699122731196   18   17   0   0
  -75.3052453528615188815820147   18   18   0   0
  0.1911555069014206909017162   19   1   0   0
  -0.0000000432262928784510336   19   2   0   0
  1.6486161823017400074320449   19   3   0   0
  -0.0000001073861140010734516   19   4   0   0
  2.1304549535139489790935841   19   6   0   0
  0.0000000448084898074796456   19   9   0   0
  1.5940759787811693559689274   19   10   0   0
  0.0000000199599039518716381   19   14   0   0
  6.5897878694322269410577064   19   15   0   0
  0.0000000327974108982331813   19   16   0   0
  -77.3175514101249774512325530   19   19   0   0
  0.0000000338760857143682870   20   1   0   0
  2.1803168226603206747427066   20   2   0   0
  0.0000001057961681594221659   20   3   0   0
  1.1487093515896560358413581   20   4   0   0
  -0.0000000140910327850463091   20   6   0   0
  -1.2102024804152555770286881   20   9   0   0
  -0.0000000931659052127997711   20   10   0   0
  1.4051619174090361763518331   20   14   0   0
  0.0000000405434656958192363   20   15   0   0
  6.3262786626651195120984994   20   16   0   0
  0.0000000642950394036390094   20   19   0   0
  -78.4443398572302186266824719   20   20   0   0
  -0.6138876122710579252839125   21   5   0   0
  2.4054574485742463707538263   21   8   0   0
  -0.0000000696987749737587592   21   11   0   0
  -0.6409346008363716595823689   21   12   0   0
  0.0000001088188736897421904   21   13   0   0
  8.2113266213637139401271270   21   17   0   0
  0.0000001027184159951843867   21   18   0   0
  -75.6696823091593984145220020   21   21   0   0
  -2.5858785001062027930629483   22   1   0   0
  0.0000000859958999011034564   22   2   0   0
  -0.5286873005266357061771032   22   3   0   0
  0.5255344478364060156749815   22   6   0   0
  0.3917195518632617390331063   22   10   0   0
  0.0000000244437518559514899   22   14   0   0
  1.3049148969874959647086143   22   15   0   0
  0.0000000834124520565637795   22   16   0   0
  4.8893805082044581311606635   22   19   0   0
  0.0000002089993005049972652   22   20   0   0
  -83.1192395328781969965348253   22   22   0   0
  -0.0000000144417088288051332   23   5   0   0
  -1.3117422375941090173512293   23   7   0   0
  0.0000000153907921962570526   23   8   0   0
  0.7659910296637804094643798   23   11   0   0
  -0.0000000301415792325343546   23   12   0   0
  0.6447076423798889788230326   23   13   0   0
  -0.0000003994075434832211613   23   17   0   0
  8.5351171893899469012012560   23   18   0   0
  0.0000000430768021253413735   23   21   0   0
  -75.6970407311255826243723277   23   23   0   0
  -0.5974688124006184430925259   24   5   0   0
  0.0000000170522154174790330   24   7   0   0
  -1.5653548942479695860185984   24   8   0   0
  0.0000000106287196821597263   24   11   0   0
  -0.5149860127217857908021870   24   12   0   0
  2.2905581065940205931497076   24   17   0   0
  -0.0000000255065621956873656   24   18   0   0
  7.7672401332733942425079476   24   21   0   0
  0.0000000105015593998558643   24   23   0   0
  -75.8937362590621660274337046   24   24   0   0
  -0.0000000323183186878850393   25   5   0   0
  -2.0550794589897813935408522   25   7   0   0
  0.0000000189817827012106477   25   8   0   0
  0.3041191172535399056542360   25   11   0   0
  -0.2227003126410508349053430   25   13   0   0
  0.0000001205437318851920736   25   17   0   0
  -2.3298497585446211743942513   25   18   0   0
  -0.0000000124453864991380669   25   21   0   0
  -6.8594011814912958513446029   25   23   0   0
  -0.0000000165417390896038796   25   24   0   0
  -76.9696120462068762435592362   25   25   0   0
  -2.4273387606005378813733842   26   5   0   0
  -0.1315489951786221189955484   26   8   0   0
  0.1364908126088942297293727   26   12   0   0
  -0.5540275286691964673480015   26   17   0   0
  -1.6271038104309489824572665   26   21   0   0
  -0.0000000222980950370654796   26   23   0   0
  -5.1902033611789235578726220   26   24   0   0
  0.0000000510910952988830047   26   25   0   0
  -81.7636000872686707907632808   26   26   0   0
  4.4200490077   1   1   1   1
  1.3448188429   2   1   2   1
  3.7111096756   2   2   1   1
  3.8451321451   2   2   2   2
  0.7137936971   3   1   1   1
  -0.1312052095   3   1   2   2
  0.8471284871   3   1   3   1
  -0.9223483056   3   2   2   1
  1.0647071392   3   2   3   2
  3.6817401055   3   3   1   1
  3.5457306895   3   3   2   2
  0.1387103894   3   3   3   1
  3.6409608446   3   3   3   3
  0.4208656376   4   1   2   1
  0.1406050000   4   1   3   2
  0.5583475406   4   1   4   1
  0.7439614399   4   2   1   1
  0.1734627783   4   2   2   2
  0.5728656867   4   2   3   1
  0.0485230856   4   2   3   3
  0.6939754110   4   2   4   2
  0.9090095603   4   3   2   1
  -0.8638322078   4   3   3   2
  0.0448660151   4   3   4   1
  0.9087459425   4   3   4   3
  3.6535385119   4   4   1   1
  3.5202964820   4   4   2   2
  0.1362907180   4   4   3   1
  3.4287523202   4   4   3   3
  0.2317755962   4   4   4   2
  -0.0000000108   4   4   4   3
  3.5894899517   4   4   4   4
  0.6225868020   5   1   5   1
  -0.0000000132   5   2   5   1
  0.3296549931   5   2   5   2
  0.1814502654   5   3   5   1
  0.2690834487   5   3   5   3
  0.1390560362   5   4   5   2
  0.2073570977   5   4   5   4
  4.3683874472   5   5   1   1
  -0.0000000459   5   5   2   1
  3.6530399431   5   5   2   2
  0.7186305884   5   5   3   1
  0.0000000365   5   5   3   2
  3.6301057228   5   5   3   3
  -0.0000000170   5   5   4   1
  0.7395983595   5   5   4   2
  -0.0000000353   5   5   4   3
  3.6003868200   5   5   4   4
  4.3476016310   5   5   5   5
  -0.0248145428   6   1   1   1
  -0.3018149302   6   1   2   2
  0.2768953715   6   1   3   1
  0.0874626097   6   1   3   3
  -0.1129381434   6   1   4   2
  -0.0939648045   6   1   4   4
  -0.0168343389   6   1   5   5
  0.3851583729   6   1   6   1
  -0.4386599169   6   2   2   1
  0.0744971817   6   2   3   2
  -0.3633711563   6   2   4   1
  -0.0124153445   6   2   4   3
  -0.0000000131   6   2   4   4
  0.0000000170   6   2   5   5
  0.4187090212   6   2   6   2
  0.7639092915   6   3   1   1
  0.2067093012   6   3   2   2
  0.5594133271   6   3   3   1
  0.2683188930   6   3   3   3
  0.4956182480   6   3   4   2
  0.0000000104   6   3   4   3
  0.0743806179   6   3   4   4
  0.7561840575   6   3   5   5
  0.0677168901   6   3   6   1
  0.0000000152   6   3   6   2
  0.6798455345   6   3   6   3
  -0.8896868132   6   4   2   1
  0.7875544253   6   4   3   2
  -0.1019982752   6   4   4   1
  -0.0000000180   6   4   4   2
  -0.8827795350   6   4   4   3
  0.0000000288   6   4   5   5
  0.0000000195   6   4   6   1
  0.0132027130   6   4   6   2
  0.9585995824   6   4   6   4
  0.0027289082   6   5   5   1
  0.1053842758   6   5   5   3
  0.1531791516   6   5   6   5
  3.6104205677   6   6   1   1
  3.4000136647   6   6   2   2
  0.2136569268   6   6   3   1
  0.0000000262   6   6   3   2
  3.5122614865   6   6   3   3
  0.0000000262   6   6   4   1
  0.1050251745   6   6   4   2
  -0.0000000120   6   6   4   3
  3.4702084518   6   6   4   4
  3.5562821517   6   6   5   5
  0.1117912412   6   6   6   1
  -0.0000000119   6   6   6   2
  0.1525867091   6   6   6   3
  0.0000000112   6   6   6   4
  3.5607914219   6   6   6   6
  -0.3362227278   7   1   5   2
  -0.0000000114   7   1   5   3
  -0.1417001292   7   1   5   4
  0.3429504171   7   1   7   1
  -0.4434455518   7   2   5   1
  0.0919723917   7   2   5   3
  0.1050799175   7   2   6   5
  0.5422528395   7   2   7   2
  -0.0000000140   7   3   5   1
  0.1864138709   7   3   5   2
  -0.0757685840   7   3   5   4
  -0.1902107372   7   3   7   1
  0.2659268674   7   3   7   3
  -0.1780139996   7   4   5   1
  -0.1566030640   7   4   5   3
  0.0578216436   7   4   6   5
  0.0000000120   7   4   7   1
  0.0198089976   7   4   7   2
  0.2186755308   7   4   7   4
  -0.0000000187   7   5   1   1
  -1.2948932806   7   5   2   1
  -0.0000000312   7   5   3   1
  0.8780633895   7   5   3   2
  -0.4132502076   7   5   4   1
  -0.0000000236   7   5   4   2
  -0.8703899244   7   5   4   3
  0.0000000216   7   5   5   5
  -0.0000000107   7   5   6   1
  0.4221695044   7   5   6   2
  -0.0000000193   7   5   6   3
  0.8531686194   7   5   6   4
  1.2684053766   7   5   7   5
  0.1331981050   7   6   5   2
  0.1195488787   7   6   5   4
  -0.1356984815   7   6   7   1
  0.0099419776   7   6   7   3
  0.1652147670   7   6   7   6
  3.6816663117   7   7   1   1
  0.0000000191   7   7   2   1
  3.7804302649   7   7   2   2
  -0.0967049712   7   7   3   1
  3.4919256105   7   7   3   3
  0.0000000211   7   7   4   1
  0.1944660051   7   7   4   2
  3.4712333549   7   7   4   4
  3.6465103922   7   7   5   5
  -0.2856793015   7   7   6   1
  -0.0000000139   7   7   6   2
  0.2185675917   7   7   6   3
  -0.0000000124   7   7   6   4
  3.3650581666   7   7   6   6
  -0.0000000161   7   7   7   5
  3.7543564821   7   7   7   7
  0.1670657230   8   1   5   1
  0.2710081377   8   1   5   3
  0.1080423914   8   1   6   5
  0.1086074534   8   1   7   2
  -0.1553842100   8   1   7   4
  0.2737148763   8   1   8   1
  -0.1986401076   8   2   5   2
  0.0717137872   8   2   5   4
  0.2027092315   8   2   7   1
  -0.2740460006   8   2   7   3
  -0.0142240612   8   2   7   6
  0.2827583583   8   2   8   2
  0.4343255851   8   3   5   1
  0.0128187953   8   3   5   3
  0.0581060843   8   3   6   5
  -0.4256294595   8   3   7   2
  0.0502031053   8   3   7   4
  -0.0004598390   8   3   8   1
  0.4846259213   8   3   8   3
  -0.0000000134   8   4   5   1
  0.1798707082   8   4   5   2
  0.0021852901   8   4   5   4
  -0.1835212278   8   4   7   1
  0.1779528935   8   4   7   3
  -0.0497144163   8   4   7   6
  -0.1852724924   8   4   8   2
  0.2335032568   8   4   8   4
  0.6731693311   8   5   1   1
  -0.1277545432   8   5   2   2
  0.8020317884   8   5   3   1
  0.1336012819   8   5   3   3
  -0.0000000199   8   5   4   1
  0.5359749117   8   5   4   2
  0.1244639115   8   5   4   4
  0.6890259354   8   5   5   5
  0.2645686901   8   5   6   1
  0.0000000121   8   5   6   2
  0.5285745921   8   5   6   3
  0.1850753803   8   5   6   6
  -0.0000000194   8   5   7   5
  -0.1077941742   8   5   7   7
  0.7849931183   8   5   8   5
  0.1703276078   8   6   5   1
  0.1485152230   8   6   5   3
  -0.0014798154   8   6   6   5
  -0.0000000107   8   6   7   1
  -0.0202126168   8   6   7   2
  -0.1521573139   8   6   7   4
  0.1474842357   8   6   8   1
  0.0083682466   8   6   8   3
  0.1839846188   8   6   8   6
  0.9124474665   8   7   2   1
  0.0000000124   8   7   2   2
  -1.0254393244   8   7   3   2
  -0.1117026222   8   7   4   1
  0.8403263030   8   7   4   3
  -0.0000000348   8   7   5   5
  -0.0000000132   8   7   6   1
  -0.0839039486   8   7   6   2
  -0.7903338134   8   7   6   4
  -0.0000000259   8   7   6   6
  -0.8810391477   8   7   7   5
  1.0180231598   8   7   8   7
  3.6295023122   8   8   1   1
  3.5024950908   8   8   2   2
  0.1285453219   8   8   3   1
  3.5722720574   8   8   3   3
  0.0617804670   8   8   4   2
  3.4075977428   8   8   4   4
  3.6034234282   8   8   5   5
  0.0632868633   8   8   6   1
  0.2296838731   8   8   6   3
  3.4338840375   8   8   6   6
  3.4764758577   8   8   7   7
  0.1237183543   8   8   8   5
  3.5575876038   8   8   8   8
  -0.0068789751   9   1   2   1
  0.2079383640   9   1   3   2
  0.1992055634   9   1   4   1
  0.0288332494   9   1   4   3
  -0.0000000197   9   1   4   4
  0.0410197453   9   1   6   2
  0.0000000207   9   1   6   3
  -0.0975424179   9   1   6   4
  0.0000000167   9   1   6   6
  0.0006487394   9   1   7   5
  -0.1829541259   9   1   8   7
  0.2340517001   9   1   9   1
  -0.0283706875   9   2   1   1
  -0.3179275774   9   2   2   2
  0.2898373182   9   2   3   1
  -0.1360366932   9   2   3   3
  0.1057993467   9   2   4   2
  -0.0000000136   9   2   4   3
  0.0730576975   9   2   4   4
  -0.0196548300   9   2   5   5
  0.1847962578   9   2   6   1
  -0.0000000138   9   2   6   2
  -0.1094457054   9   2   6   3
  0.0000000110   9   2   6   4
  0.0648650870   9   2   6   6
  -0.2902798679   9   2   7   7
  0.2660839439   9   2   8   5
  -0.1069368731   9   2   8   8
  -0.0000000255   9   2   9   1
  0.3960192579   9   2   9   2
  0.4549135415   9   3   2   1
  0.0000000133   9   3   3   1
  -0.1723373594   9   3   3   2
  0.0000000159   9   3   3   3
  0.2822772951   9   3   4   1
  -0.0000000119   9   3   4   2
  0.0496769822   9   3   4   3
  -0.0000000134   9   3   5   5
  0.0000000280   9   3   6   1
  -0.4050540853   9   3   6   2
  0.0470053863   9   3   6   4
  0.0000000146   9   3   6   6
  -0.4310369120   9   3   7   5
  0.1530656178   9   3   8   7
  0.0000000172   9   3   8   8
  -0.1191437579   9   3   9   1
  0.0000000143   9   3   9   2
  0.4876163102   9   3   9   3
  0.7863301047   9   4   1   1
  -0.0000000189   9   4   2   1
  0.3411292507   9   4   2   2
  0.4475622043   9   4   3   1
  -0.0000000139   9   4   3   2
  0.1854279948   9   4   3   3
  -0.0000000377   9   4   4   1
  0.6022340618   9   4   4   2
  0.2039082711   9   4   4   4
  0.7711750147   9   4   5   5
  -0.1518403429   9   4   6   1
  0.0000000205   9   4   6   2
  0.5737241862   9   4   6   3
  0.0692400191   9   4   6   6
  0.3324653839   9   4   7   7
  0.4312393011   9   4   8   5
  0.0000000162   9   4   8   7
  0.1972929957   9   4   8   8
  -0.0000000189   9   4   9   1
  -0.1062605486   9   4   9   2
  -0.0000000192   9   4   9   3
  0.6875484035   9   4   9   4
  0.0038489128   9   5   5   2
  0.0757614436   9   5   5   4
  -0.0039029950   9   5   7   1
  -0.0746587485   9   5   7   3
  -0.0360932518   9   5   7   6
  0.0745374221   9   5   8   2
  0.0396522674   9   5   8   4
  0.0961605894   9   5   9   5
  0.0000000268   9   6   1   1
  0.7282581355   9   6   2   1
  -0.0000000226   9   6   2   2
  0.0000000567   9   6   3   1
  -0.9297922116   9   6   3   2
  -0.2019156978   9   6   4   1
  0.0000000314   9   6   4   2
  0.8782671310   9   6   4   3
  0.0000000246   9   6   6   1
  0.1370244257   9   6   6   2
  0.0000000297   9   6   6   3
  -0.8662889700   9   6   6   4
  -0.7012107068   9   6   7   5
  -0.0000000247   9   6   7   7
  0.0000000595   9   6   8   5
  0.8799618098   9   6   8   7
  -0.0692890983   9   6   9   1
  0.0000000286   9   6   9   2
  -0.1018689198   9   6   9   3
  0.0000000293   9   6   9   4
  1.0246547185   9   6   9   6
  -0.0044956608   9   7   5   1
  -0.0951591047   9   7   5   3
  -0.0774417397   9   7   6   5
  -0.0925528042   9   7   7   2
  0.0115010560   9   7   7   4
  -0.0969535457   9   7   8   1
  0.0085052783   9   7   8   3
  0.0390166517   9   7   8   6
  0.0000000100   9   7   9   5
  0.1202506463   9   7   9   7
  0.1186926407   9   8   5   2
  0.1020499861   9   8   5   4
  0.0000000101   9   8   6   5
  -0.1208015625   9   8   7   1
  0.0124070851   9   8   7   3
  0.1104640800   9   8   7   6
  -0.0149656932   9   8   8   2
  -0.0006015446   9   8   8   4
  -0.0147284394   9   8   9   5
  0.1241936094   9   8   9   8
  3.3265396019   9   9   1   1
  -0.0000001058   9   9   2   1
  3.5879590552   9   9   2   2
  -0.2597592087   9   9   3   1
  0.0000000594   9   9   3   2
  3.4788550458   9   9   3   3
  -0.0000000439   9   9   4   1
  -0.1440130336   9   9   4   2
  -0.0000000582   9   9   4   3
  3.4504090731   9   9   4   4
  3.2688236415   9   9   5   5
  -0.1192836310   9   9   6   1
  0.0000000466   9   9   6   2
  -0.1018977320   9   9   6   3
  0.0000000572   9   9   6   4
  3.4294340491   9   9   6   6
  0.0000001077   9   9   7   5
  3.4962062998   9   9   7   7
  -0.2257195377   9   9   8   5
  -0.0000000559   9   9   8   7
  3.3985415452   9   9   8   8
  -0.1633135342   9   9   9   2
  -0.0000000513   9   9   9   3
  -0.0570728470   9   9   9   4
  -0.0000000596   9   9   9   6
  3.6523290874   9   9   9   9
  -0.0061421932   10   1   1   1
  -0.0049568302   10   1   2   2
  -0.0009418628   10   1   3   1
  -0.1882553881   10   1   3   3
  0.1812707160   10   1   4   2
  -0.0000000142   10   1   4   3
  0.1493811636   10   1   4   4
  -0.0056907677   10   1   5   5
  -0.1786983169   10   1   6   1
  -0.0000000151   10   1   6   2
  -0.1607121411   10   1   6   3
  -0.0000000136   10   1   6   4
  -0.0489689985   10   1   6   6
  0.0000966946   10   1   7   7
  -0.0057959298   10   1   8   5
  -0.1380630820   10   1   8   8
  -0.0000000180   10   1   9   1
  0.1760089127   10   1   9   2
  -0.0000000174   10   1   9   3
  0.0450864405   10   1   9   4
  -0.0300377235   10   1   9   9
  0.3083121519   10   1   10   1
  -0.0042305371   10   2   2   1
  0.2450744480   10   2   3   2
  -0.0000000208   10   2   3   3
  0.2392828878   10   2   4   1
  0.0000000194   10   2   4   2
  0.0053293783   10   2   4   3
  -0.0000000144   10   2   6   1
  0.0186138904   10   2   6   2
  -0.1335381976   10   2   6   4
  0.0000000155   10   2   6   6
  -0.0027942289   10   2   7   5
  -0.2007676740   10   2   8   7
  -0.0000000243   10   2   8   8
  0.2611923736   10   2   9   1
  -0.1536812884   10   2   9   3
  -0.0000000198   10   2   9   4
  -0.0904088848   10   2   9   6
  0.0000000250   10   2   10   1
  0.3257034756   10   2   10   2
  0.0217219805   10   3   1   1
  0.3649180704   10   3   2   2
  -0.3435663564   10   3   3   1
  -0.0000000263   10   3   3   2
  0.0209298158   10   3   3   3
  -0.0000000152   10   3   4   1
  0.0027429340   10   3   4   2
  0.0488245742   10   3   4   4
  0.0121623002   10   3   5   5
  -0.3479440963   10   3   6   1
  -0.0209945858   10   3   6   3
  -0.1300400752   10   3   6   6
  0.3247191191   10   3   7   7
  -0.3071011174   10   3   8   5
  0.0000000335   10   3   8   7
  0.0392595247   10   3   8   8
  -0.0000000232   10   3   9   1
  -0.3127685967   10   3   9   2
  0.1681849815   10   3   9   4
  -0.0000000264   10   3   9   6
  0.1755870621   10   3   9   9
  0.0464004672   10   3   10   1
  -0.0000000278   10   3   10   2
  0.4171212418   10   3   10   3
  0.0000000153   10   4   1   1
  0.5287560676   10   4   2   1
  0.0000000410   10   4   2   2
  -0.0000000206   10   4   3   1
  -0.0282667717   10   4   3   2
  0.0000000104   10   4   3   3
  0.5006451962   10   4   4   1
  0.0674725961   10   4   4   3
  0.0000000113   10   4   4   4
  -0.0000000269   10   4   6   1
  -0.4564484285   10   4   6   2
  -0.0665667373   10   4   6   4
  0.0000000133   10   4   6   6
  -0.4957003625   10   4   7   5
  0.0000000543   10   4   7   7
  -0.0000000338   10   4   8   5
  0.0511152796   10   4   8   7
  0.0000000123   10   4   8   8
  0.0575571724   10   4   9   1
  -0.0000000300   10   4   9   2
  0.4402490162   10   4   9   3
  -0.1960472679   10   4   9   6
  -0.0000000432   10   4   9   9
  0.0780644706   10   4   10   2
  0.0000000362   10   4   10   3
  0.5864341513   10   4   10   4
  0.0004990676   10   5   5   1
  -0.0039818745   10   5   5   3
  -0.0555900037   10   5   6   5
  -0.0046354908   10   5   7   2
  -0.0532311852   10   5   7   4
  -0.0041966675   10   5   8   1
  -0.0516227679   10   5   8   3
  -0.0379993720   10   5   8   6
  -0.0000000102   10   5   9   5
  -0.0439791306   10   5   9   7
  0.0859256028   10   5   10   5
  -0.8992359253   10   6   1   1
  -0.0000000385   10   6   2   1
  -0.1257574331   10   6   2   2
  -0.7772488462   10   6   3   1
  -0.1993305809   10   6   3   3
  -0.0000000398   10   6   4   1
  -0.7012172583   10   6   4   2
  -0.2020406045   10   6   4   4
  -0.8795650958   10   6   5   5
  -0.0838722166   10   6   6   1
  0.0000000394   10   6   6   2
  -0.6850127564   10   6   6   3
  -0.1923556304   10   6   6   6
  0.0000000610   10   6   7   5
  -0.1567294438   10   6   7   7
  -0.7094379762   10   6   8   5
  -0.1992744386   10   6   8   8
  -0.1157643356   10   6   9   2
  -0.0000000448   10   6   9   3
  -0.6660399555   10   6   9   4
  -0.0000000155   10   6   9   6
  0.2150781533   10   6   9   9
  -0.0184571738   10   6   10   1
  0.1327415598   10   6   10   3
  -0.0000000526   10   6   10   4
  0.8952364475   10   6   10   6
  -0.0056008580   10   7   5   2
  -0.0676444041   10   7   5   4
  0.0056898582   10   7   7   1
  0.0633578674   10   7   7   3
  0.0033198574   10   7   7   6
  -0.0621563426   10   7   8   2
  -0.0041444243   10   7   8   4
  -0.0689865997   10   7   9   5
  0.0299842416   10   7   9   8
  0.0784985922   10   7   10   7
  -0.0064814402   10   8   5   1
  -0.0821004501   10   8   5   3
  -0.0000000108   10   8   5   4
  -0.0827302526   10   8   6   5
  -0.0766372943   10   8   7   2
  0.0000000104   10   8   7   3
  -0.0026820739   10   8   7   4
  -0.0823706105   10   8   8   1
  -0.0000000101   10   8   8   2
  -0.0060769471   10   8   8   3
  -0.0018428664   10   8   8   6
  0.0706462365   10   8   9   7
  0.0107555911   10   8   10   5
  0.0789018780   10   8   10   8
  -0.0000001049   10   9   1   1
  1.2757703211   10   9   2   1
  -0.0000000168   10   9   2   2
  -0.0000000761   10   9   3   1
  -1.1156680425   10   9   3   2
  -0.0000000202   10   9   3   3
  0.1614587598   10   9   4   1
  -0.0000000719   10   9   4   2
  1.0858933441   10   9   4   3
  -0.0000000226   10   9   4   4
  -0.0000001427   10   9   5   5
  -0.2053227133   10   9   6   2
  -0.0000000733   10   9   6   3
  -1.0716729869   10   9   6   4
  -0.0000000302   10   9   6   6
  -1.1996777975   10   9   7   5
  -0.0000000144   10   9   7   7
  -0.0000000723   10   9   8   5
  1.0657526754   10   9   8   7
  -0.0000000199   10   9   8   8
  -0.0364062275   10   9   9   1
  0.2373722822   10   9   9   3
  -0.0000000815   10   9   9   4
  1.0406885343   10   9   9   6
  -0.0000000710   10   9   9   9
  -0.0446049213   10   9   10   2
  0.0000000175   10   9   10   3
  0.2527665626   10   9   10   4
  0.0000000867   10   9   10   6
  1.4437039899   10   9   10   9
  4.0414055124   10   10   1   1
  0.0000001642   10   10   2   1
  3.7136302166   10   10   2   2
  0.3332129107   10   10   3   1
  -0.0000001468   10   10   3   2
  3.6599974640   10   10   3   3
  0.0000000141   10   10   4   1
  0.3931779513   10   10   4   2
  0.0000001434   10   10   4   3
  3.6347443565   10   10   4   4
  3.9510738094   10   10   5   5
  -0.0568238129   10   10   6   1
  -0.0000000199   10   10   6   2
  0.4245689112   10   10   6   3
  -0.0000001452   10   10   6   4
  3.6083385985   10   10   6   6
  -0.0000001649   10   10   7   5
  3.6326138548   10   10   7   7
  0.3090066569   10   10   8   5
  0.0000001421   10   10   8   7
  3.5648024277   10   10   8   8
  -0.0767826247   10   10   9   2
  0.0000000256   10   10   9   3
  0.4577198353   10   10   9   4
  0.0000001529   10   10   9   6
  3.5200087946   10   10   9   9
  -0.0162022658   10   10   10   1
  0.0759884329   10   10   10   3
  0.0000000421   10   10   10   4
  -0.4797234298   10   10   10   6
  0.0000001366   10   10   10   9
  3.9368535249   10   10   10   10
  0.1340085296   11   1   5   2
  0.2110424336   11   1   5   4
  -0.1366453532   11   1   7   1
  -0.0851770632   11   1   7   3
  0.1200363308   11   1   7   6
  0.0816066068   11   1   8   2
  -0.0038479795   11   1   8   4
  0.0770564490   11   1   9   5
  0.1057168957   11   1   9   8
  -0.0654226548   11   1   10   7
  -0.0000000135   11   1   10   8
  0.2165177766   11   1   11   1
  0.1682137016   11   2   5   1
  0.1635314927   11   2   5   3
  -0.0550958294   11   2   6   5
  -0.0027092125   11   2   7   2
  -0.2229358341   11   2   7   4
  0.1630585061   11   2   8   1
  -0.0650400444   11   2   8   3
  0.1595202910   11   2   8   6
  -0.0103630934   11   2   9   7
  0.0493012430   11   2   10   5
  -0.0005209060   11   2   10   8
  0.2289447730   11   2   11   2
  0.1935417046   11   3   5   2
  0.0066233835   11   3   5   4
  -0.1975144505   11   3   7   1
  0.1870124670   11   3   7   3
  -0.0492285956   11   3   7   6
  -0.1949394923   11   3   8   2
  0.2466105212   11   3   8   4
  0.0424782727   11   3   9   5
  0.0038811249   11   3   9   8
  -0.0038524800   11   3   10   7
  0.0003418770   11   3   11   1
  0.2608953850   11   3   11   3
  0.4192591068   11   4   5   1
  0.0097611910   11   4   5   3
  0.0061090705   11   4   6   5
  -0.4136551019   11   4   7   2
  -0.0006250373   11   4   7   4
  -0.0033524751   11   4   8   1
  0.4196618099   11   4   8   3
  -0.0305830744   11   4   8   6
  -0.0374820445   11   4   9   7
  0.0322885013   11   4   10   5
  -0.0006710313   11   4   10   8
  -0.0172081436   11   4   11   2
  0.4376179627   11   4   11   4
  0.3871074200   11   5   2   1
  0.1333003734   11   5   3   2
  0.5153757345   11   5   4   1
  0.0385032712   11   5   4   3
  -0.0000000185   11   5   5   5
  0.0000000131   11   5   6   1
  -0.3343712136   11   5   6   2
  -0.0687008622   11   5   6   4
  0.0000000256   11   5   6   6
  -0.3937750127   11   5   7   5
  0.0000000108   11   5   7   7
  -0.0000000120   11   5   8   5
  -0.1234809635   11   5   8   7
  0.1762125819   11   5   9   1
  0.2766638677   11   5   9   3
  -0.0000000386   11   5   9   4
  -0.1643571946   11   5   9   6
  -0.0000000419   11   5   9   9
  0.1958899945   11   5   10   2
  -0.0000000240   11   5   10   3
  0.4357950884   11   5   10   4
  -0.0000000359   11   5   10   6
  0.1420158746   11   5   10   9
  0.5107137162   11   5   11   5
  0.0000000128   11   6   5   1
  -0.1705085668   11   6   5   2
  0.0068935299   11   6   5   4
  0.1739998859   11   6   7   1
  -0.1794881457   11   6   7   3
  0.0010451276   11   6   7   6
  0.1878457731   11   6   8   2
  0.0000000106   11   6   8   3
  -0.1681815813   11   6   8   4
  -0.0021584734   11   6   9   5
  0.0270622424   11   6   9   8
  0.0227624543   11   6   10   7
  0.0172156587   11   6   11   1
  -0.1756546116   11   6   11   3
  0.1901425118   11   6   11   6
  -0.7040233789   11   7   1   1