 &FCI NORB= 14,NELEC= ,MS0= ,
  ORBSYM=1,2,3,1,4,2,3,1,4,2,3,1,4,3,
  ISYM=1,
 /
  -27.7601910027025198246519722   1   1   0   0
  -25.2010547851363426730131323   2   2   0   0
  -24.9725037989763833934375725   3   3   0   0
  -1.6390023341208230789334266   4   1   0   0
  -22.8844188470519895872712368   4   4   0   0
  -22.5716534106272561643891095   5   5   0   0
  2.1429813380461686378453123   6   2   0   0
  -23.3496557241783300185034022   6   6   0   0
  1.2919269513326889775584050   7   3   0   0
  -21.5533363228062349037372769   7   7   0   0
  -0.1552872987715722130630525   8   1   0   0
  0.8254760168614794224595244   8   4   0   0
  -19.5651830768201158150532137   8   8   0   0
  -1.5616570661736490777116160   9   5   0   0
  -18.5496333457371278541359061   9   9   0   0
  -0.3374069454044205107479115   10   2   0   0
  1.3916588208770921397672282   10   6   0   0
  -17.7746969697119325815037882   10   10   0   0
  -0.6448275341368121527096946   11   3   0   0
  -0.8300175256398186762751834   11   7   0   0
  -16.0961340711181577489696792   11   11   0   0
  0.7745439460145662202705807   12   1   0   0
  0.5488573602890696179201768   12   4   0   0
  1.2695114090714922916447449   12   8   0   0
  -18.1852227511799213743870496   12   12   0   0
  -0.3176839615778857539574176   13   5   0   0
  -2.0219981326852236591662404   13   9   0   0
  -15.6041207226622198334098357   13   13   0   0
  -0.7207585261927578201834876   14   3   0   0
  0.1064402819569518765518978   14   7   0   0
  -1.5790274082940070066172211   14   11   0   0
  -16.1730414848537833449881873   14   14   0   0
  2.4410984909   1   1   1   1
  0.7332469629   2   1   2   1
  2.0523684456   2   2   1   1
  2.0834384820   2   2   2   2
  0.6914495856   3   1   3   1
  0.3727827968   3   2   3   2
  2.3510128030   3   3   1   1
  1.9781107836   3   3   2   2
  2.3817137658   3   3   3   3
  0.3972701467   4   1   1   1
  -0.0113699317   4   1   2   2
  0.3590971001   4   1   3   3
  0.4032249203   4   1   4   1
  -0.3529972993   4   2   2   1
  0.7039607504   4   2   4   2
  0.1857443090   4   3   3   1
  0.2731177573   4   3   4   3
  1.8489646426   4   4   1   1
  2.0015094670   4   4   2   2
  1.8162251118   4   4   3   3
  -0.1533885021   4   4   4   1
  2.2138422509   4   4   4   4
  -0.3754641205   5   1   3   2
  0.3800584903   5   1   5   1
  -0.4810228507   5   2   3   1
  0.1203635490   5   2   4   3
  0.6196811280   5   2   5   2
  -0.6684549564   5   3   2   1
  0.3937341417   5   3   4   2
  0.7103888536   5   3   5   3
  0.1873092231   5   4   3   2
  -0.1984757398   5   4   5   1
  0.3134267586   5   4   5   4
  1.9855884532   5   5   1   1
  2.0724056460   5   5   2   2
  2.0130591397   5   5   3   3
  -0.0727750865   5   5   4   1
  1.8639825872   5   5   4   4
  2.2724960904   5   5   5   5
  -0.3255706319   6   1   2   1
  -0.2907837899   6   1   4   2
  0.2157788846   6   1   5   3
  0.5242986956   6   1   6   1
  -0.4970290510   6   2   1   1
  -0.0707282778   6   2   2   2
  -0.4003728925   6   2   3   3
  -0.4430377157   6   2   4   1
  0.2665174007   6   2   4   4
  -0.0795653320   6   2   5   5
  0.6312959441   6   2   6   2
  -0.1441228875   6   3   3   2
  0.1345599026   6   3   5   1
  0.1292900093   6   3   5   4
  0.2429267173   6   3   6   3
  -0.6662288202   6   4   2   1
  0.6392029543   6   4   4   2
  0.5370831713   6   4   5   3
  0.0546434324   6   4   6   1
  0.9355206376   6   4   6   4
  0.1528070838   6   5   3   1
  0.1631836064   6   5   4   3
  0.0040290079   6   5   5   2
  0.2153488019   6   5   6   5
  2.1950941271   6   6   1   1
  2.1052955143   6   6   2   2
  2.0033550586   6   6   3   3
  0.1177519145   6   6   4   1
  2.1002348098   6   6   4   4
  1.8821353632   6   6   5   5
  -0.1573142302   6   6   6   2
  2.3547334267   6   6   6   6
  -0.1857145650   7   1   3   1
  -0.3081572818   7   1   4   3
  -0.1722215276   7   1   5   2
  -0.1269952108   7   1   6   5
  0.3754047342   7   1   7   1
  0.2315568795   7   2   3   2
  -0.2458672376   7   2   5   1
  0.3098063895   7   2   5   4
  0.0927020749   7   2   6   3
  0.3253961534   7   2   7   2
  -0.3374263749   7   3   1   1
  0.1149564993   7   3   2   2
  -0.3658582237   7   3   3   3
  -0.4186321537   7   3   4   1
  0.0382918867   7   3   4   4
  0.2726893026   7   3   5   5
  0.2811168482   7   3   6   2
  -0.0870610340   7   3   6   6
  0.6559711307   7   3   7   3
  -0.4480257210   7   4   3   1
  -0.0004618660   7   4   4   3
  0.4193901912   7   4   5   2
  0.0818366729   7   4   6   5
  0.0372162604   7   4   7   1
  0.4704408997   7   4   7   4
  -0.4977932258   7   5   2   1
  0.5422334259   7   5   4   2
  0.6173212160   7   5   5   3
  -0.0604370453   7   5   6   1
  0.4806018951   7   5   6   4
  0.6744317662   7   5   7   5
  0.1431028801   7   6   3   2
  -0.1365328191   7   6   5   1
  0.1336863308   7   6   5   4
  -0.0096839230   7   6   6   3
  0.1149956503   7   6   7   2
  0.1462288016   7   6   7   6
  2.1091811594   7   7   1   1
  1.9081655385   7   7   2   2
  2.2459549750   7   7   3   3
  0.1679217946   7   7   4   1
  1.9003793602   7   7   4   4
  1.9969203154   7   7   5   5
  -0.1027524849   7   7   6   2
  1.8339739677   7   7   6   6
  -0.2759516461   7   7   7   3
  2.2850545338   7   7   7   7
  0.0068002100   8   1   1   1
  0.1259929742   8   1   2   2
  -0.0661663406   8   1   3   3
  -0.0843722493   8   1   4   1
  -0.1140835939   8   1   4   4
  0.2529555628   8   1   5   5
  -0.1223112586   8   1   6   2
  0.0161293282   8   1   6   6
  0.3536932697   8   1   7   3
  -0.1561962455   8   1   7   7
  0.3375625165   8   1   8   1
  0.1958134476   8   2   2   1
  0.0900877246   8   2   4   2
  -0.2859585419   8   2   5   3
  -0.2113831708   8   2   6   1
  0.0959704760   8   2   6   4
  -0.2063090091   8   2   7   5
  0.3075606179   8   2   8   2
  -0.0943032073   8   3   3   1
  -0.2404333109   8   3   4   3
  -0.2171602917   8   3   5   2
  0.0464005437   8   3   6   5
  0.3634150571   8   3   7   1
  0.1313073330   8   3   7   4
  0.5181693470   8   3   8   3
  -0.2015375368   8   4   1   1
  0.0717349513   8   4   2   2
  -0.3314182387   8   4   3   3
  -0.2484865906   8   4   4   1
  0.2411113396   8   4   4   4
  -0.1014436240   8   4   5   5
  0.2853330642   8   4   6   2
  0.2036603478   8   4   6   6
  0.2433178051   8   4   7   3
  -0.2959806247   8   4   7   7
  0.0329360348   8   4   8   1
  0.4132026025   8   4   8   4
  -0.2817123124   8   5   3   2
  0.3010650921   8   5   5   1
  -0.1366194275   8   5   5   4
  0.0945198369   8   5   6   3
  -0.2187038137   8   5   7   2
  0.0183298668   8   5   7   6
  0.4247482462   8   5   8   5
  -0.3602086579   8   6   2   1
  0.3470930428   8   6   4   2
  0.2905174918   8   6   5   3
  0.0283053478   8   6   6   1
  0.5067825647   8   6   6   4
  0.2606028625   8   6   7   5
  0.0525029694   8   6   8   2
  0.2745333176   8   6   8   6
  0.5485470702   8   7   3   1
  0.1862592599   8   7   4   3
  -0.3280342408   8   7   5   2
  0.0984116998   8   7   6   5
  -0.2136180754   8   7   7   1
  -0.3788283142   8   7   7   4
  -0.1833717472   8   7   8   3
  0.7912953327   8   7   8   7
  2.1091811594   8   8   1   1
  1.9081655385   8   8   2   2
  2.2459549750   8   8   3   3
  0.1679217946   8   8   4   1
  1.9003793602   8   8   4   4
  1.9969203154   8   8   5   5
  -0.1027524849   8   8   6   2
  1.8339739677   8   8   6   6
  -0.2759516461   8   8   7   3
  2.2850545338   8   8   7   7
  -0.1561962455   8   8   8   1
  -0.2959806247   8   8   8   4
  2.2850545338   8   8   8   8
  -0.1866610072   9   1   3   2
  0.1742608793   9   1   5   1
  0.1683872407   9   1   5   4
  0.3154593032   9   1   6   3
  0.1208149506   9   1   7   2
  -0.0120832511   9   1   7   6
  0.1227685598   9   1   8   5
  0.4096501935   9   1   9   1
  -0.2154117881   9   2   3   1
  -0.2301640575   9   2   4   3
  -0.0058038615   9   2   5   2
  -0.3037106130   9   2   6   5
  0.1791371741   9   2   7   1
  -0.1154979108   9   2   7   4
  -0.0653967766   9   2   8   3
  -0.1387271602   9   2   8   7
  0.4283290214   9   2   9   2
  -0.2515715576   9   3   2   1
  -0.2230379235   9   3   4   2
  0.1668424238   9   3   5   3
  0.4037710399   9   3   6   1
  0.0433517606   9   3   6   4
  -0.0459175898   9   3   7   5
  -0.1626008092   9   3   8   2
  0.0224865444   9   3   8   6
  0.3109524500   9   3   9   3
  -0.2650146488   9   4   3   2
  0.2528350352   9   4   5   1
  -0.2459923333   9   4   5   4
  0.0193272421   9   4   6   3
  -0.2117256703   9   4   7   2
  -0.2699404599   9   4   7   6
  -0.0332038692   9   4   8   5
  0.0241897358   9   4   9   1
  0.4983226451   9   4   9   4
  0.3524372084   9   5   1   1
  0.0501528587   9   5   2   2
  0.2838818914   9   5   3   3
  0.3141529874   9   5   4   1
  -0.1889498066   9   5   4   4
  0.0563769514   9   5   5   5
  -0.4476256211   9   5   6   2
  0.1115897042   9   5   6   6
  -0.1993603301   9   5   7   3
  0.0728401644   9   5   7   7
  0.0867009432   9   5   8   1
  -0.2022841824   9   5   8   4
  0.0728401644   9   5   8   8
  0.3173926647   9   5   9   5
  0.4761719346   9   6   3   1
  0.0255928471   9   6   4   3
  -0.4412470322   9   6   5   2
  0.0299182822   9   6   6   5
  -0.0188313563   9   6   7   1
  -0.3829049574   9   6   7   4
  0.0025070730   9   6   8   3
  0.0349675126   9   6   8   7
  -0.0421075781   9   6   9   2
  0.7104666828   9   6   9   6
  0.3602086579   9   7   2   1
  -0.3470930428   9   7   4   2
  -0.2905174918   9   7   5   3
  -0.0283053478   9   7   6   1
  -0.5067825647   9   7   6   4
  -0.2606028625   9   7   7   5
  -0.0525029694   9   7   8   2
  -0.2745333176   9   7   8   6
  -0.0224865444   9   7   9   3
  0.2745333176   9   7   9   7
  -0.1431028801   9   8   3   2
  0.1365328191   9   8   5   1
  -0.1336863308   9   8   5   4
  0.0096839230   9   8   6   3
  -0.1149956503   9   8   7   2
  -0.1462288016   9   8   7   6
  -0.0183298668   9   8   8   5
  0.0120832511   9   8   9   1
  0.2699404599   9   8   9   4
  0.1462288016   9   8   9   8
  2.1950941271   9   9   1   1
  2.1052955143   9   9   2   2
  2.0033550586   9   9   3   3
  0.1177519145   9   9   4   1
  2.1002348098   9   9   4   4
  1.8821353632   9   9   5   5
  -0.1573142302   9   9   6   2
  2.3547334267   9   9   6   6
  -0.0870610340   9   9   7   3
  1.8339739677   9   9   7   7
  0.0161293282   9   9   8   1
  0.2036603478   9   9   8   4
  1.8339739677   9   9   8   8
  0.1115897042   9   9   9   5
  2.3547334267   9   9   9   9
  0.0753830529   10   1   2   1
  0.0837551782   10   1   4   2
  0.0986529010   10   1   5   3
  -0.1684246511   10   1   6   1
  -0.1843041913   10   1   6   4
  0.2201209277   10   1   7   5
  -0.1574696129   10   1   8   2
  -0.0994232634   10   1   8   6
  -0.1299615963   10   1   9   3
  0.0994232634   10   1   9   7
  0.2851193203   10   1   10   1
  0.0953239442   10   2   1   1
  0.0157463700   10   2   2   2
  -0.0497552868   10   2   3   3
  0.0876489481   10   2   4   1
  0.1960542153   10   2   4   4
  -0.2853041580   10   2   5   5
  0.0124758975   10   2   6   2
  0.3182475523   10   2   6   6
  -0.2249756841   10   2   7   3
  -0.1265399102   10   2   7   7
  -0.1810186441   10   2   8   1
  0.2468881903   10   2   8   4
  -0.1265399102   10   2   8   8
  -0.0087863997   10   2   9   5
  0.3182475523   10   2   9   9
  0.4292820074   10   2   10   2
  -0.1385748131   10   3   3   2
  0.1633305280   10   3   5   1
  -0.1891317124   10   3   5   4
  -0.0761929004   10   3   6   3
  -0.2419166565   10   3   7   2
  0.0443616888   10   3   7   6
  0.3241740399   10   3   8   5
  -0.0988458164   10   3   9   1
  -0.0822765319   10   3   9   4
  -0.0443616888   10   3   9   8
  0.3496719183   10   3   10   3
  0.0939115253   10   4   2   1
  0.2405028450   10   4   4   2
  -0.1641818501   10   4   5   3
  -0.2545364663   10   4   6   1
  0.2301323259   10   4   6   4
  -0.0592267368   10   4   7   5
  0.2932800942   10   4   8   2
  0.1253127143   10   4   8   6
  -0.1956510673   10   4   9   3
  -0.1253127143   10   4   9   7
  -0.1199464455   10   4   10   1
  0.3149382575   10   4   10   4
  0.2347699719   10   5   3   1
  -0.1605855032   10   5   4   3
  -0.4318408900   10   5   5   2
  0.0102686449   10   5   6   5
  0.2346682356   10   5   7   1
  -0.1911365257   10   5   7   4
  0.3136407954   10   5   8   3
  0.4486259695   10   5   8   7
  -0.0143972309   10   5   9   2
  -0.0817964464   10   5   9   6
  0.6930156967   10   5   10   5
  -0.3524372084   10   6   1   1
  -0.0501528587   10   6   2   2
  -0.2838818914   10   6   3   3
  -0.3141529874   10   6   4   1
  0.1889498066   10   6   4   4
  -0.0563769514   10   6   5   5
  0.4476256211   10   6   6   2
  -0.1115897042   10   6   6   6
  0.1993603301   10   6   7   3
  -0.0728401644   10   6   7   7
  -0.0867009432   10   6   8   1
  0.2022841824   10   6   8   4
  -0.0728401644   10   6   8   8
  -0.3173926647   10   6   9   5
  -0.1115897042   10   6   9   9
  0.0087863997   10   6   10   2
  0.3173926647   10   6   10   6
  -0.2817123124   10   7   3   2
  0.3010650921   10   7   5   1
  -0.1366194275   10   7   5   4
  0.0945198369   10   7   6   3
  -0.2187038137   10   7   7   2
  0.0183298668   10   7   7   6
  0.4247482462   10   7   8   5
  0.1227685598   10   7   9   1
  -0.0332038692   10   7   9   4
  -0.0183298668   10   7   9   8
  0.3241740399   10   7   10   3
  0.4247482462   10   7   10   7
  -0.4977932258   10   8   2   1
  0.5422334259   10   8   4   2
  0.6173212160   10   8   5   3
  -0.0604370453   10   8   6   1
  0.4806018951   10   8   6   4
  0.6744317662   10   8   7   5
  -0.2063090091   10   8   8   2
  0.2606028625   10   8   8   6
  -0.0459175898   10   8   9   3
  -0.2606028625   10   8   9   7
  0.2201209277   10   8   10   1
  -0.0592267368   10   8   10   4
  0.6744317662   10   8   10   8
  -0.1528070838   10   9   3   1
  -0.1631836064   10   9   4   3
  -0.0040290079   10   9   5   2
  -0.2153488019   10   9   6   5
  0.1269952108   10   9   7   1
  -0.0818366729   10   9   7   4
  -0.0464005437   10   9   8   3
  -0.0984116998   10   9   8   7
  0.3037106130   10   9   9   2
  -0.0299182822   10   9   9   6
  -0.0102686449   10   9   10   5
  0.2153488019   10   9   10   9
  1.9855884532   10   10   1   1
  2.0724056460   10   10   2   2
  2.0130591397   10   10   3   3
  -0.0727750865   10   10   4   1
  1.8639825872   10   10   4   4
  2.2724960904   10   10   5   5
  -0.0795653320   10   10   6   2
  1.8821353632   10   10   6   6
  0.2726893026   10   10   7   3
  1.9969203154   10   10   7   7
  0.2529555628   10   10   8   1
  -0.1014436240   10   10   8   4
  1.9969203154   10   10   8   8
  0.0563769514   10   10   9   5
  1.8821353632   10   10   9   9
  -0.2853041580   10   10   10   2
  -0.0563769514   10   10   10   6
  2.2724960904   10   10   10   10
  0.0723122759   11   1   3   1
  0.0185491941   11   1   4   3
  -0.0879931949   11   1   5   2
  0.1761260945   11   1   6   5
  0.0590782785   11   1   7   1
  0.1139945613   11   1   7   4
  0.2498399800   11   1   8   3
  -0.0045141298   11   1   8   7
  -0.2483761378   11   1   9   2
  0.0231450182   11   1   9   6
  0.1384678758   11   1   10   5
  -0.1761260945   11   1   10   9
  0.2323988570   11   1   11   1
  0.0757476869   11   2   3   2
  -0.0824907819   11   2   5   1
  -0.1704359008   11   2   5   4
  -0.2042887243   11   2   6   3
  -0.0943181033   11   2   7   2
  -0.1403858149   11   2   7   6
  -0.2493741976   11   2   8   5
  -0.2657678402   11   2   9   1
  0.2578524152   11   2   9   4
  0.1403858149   11   2   9   8
  -0.1111915630   11   2   10   3
  -0.2493741976   11   2   10   7
  0.3795373091   11   2   11   2
  0.1252348019   11   3   1   1
  0.1063334102   11   3   2   2
  0.0495638084   11   3   3   3
  0.0476280319   11   3   4   1
  -0.1441529963   11   3   4   4
  0.1969074077   11   3   5   5
  -0.2388968790   11   3   6   2
  0.0509023700   11   3   6   6
  0.1814461153   11   3   7   3
  -0.0863675783   11   3   7   7
  0.2676119575   11   3   8   1
  -0.0443816614   11   3   8   4
  -0.0863675783   11   3   8   8
  0.1693744925   11   3   9   5
  0.0509023700   11   3   9   9
  -0.1291070054   11   3   10   2
  -0.1693744925   11   3   10   6
  0.1969074077   11   3   10   10
  0.2464831129   11   3   11   3
  0.0358683837   11   4   3   1
  -0.1858008447   11   4   4   3
  -0.2194530316   11   4   5   2
  -0.2040866824   11   4   6   5
  0.1657954492   11   4   7   1
  -0.2337448652   11   4   7   4
  0.0140891610   11   4   8   3
  -0.2976110490   11   4   8   7
  0.2878697709   11   4   9   2
  0.4643745951   11   4   9   6
  -0.1983467925   11   4   10   5
  0.2040866824   11   4   10   9
  -0.1425678671   11   4   11   1
  0.6015832411   11   4   11   4
  -0.0939115253   11   5   2   1
  -0.2405028450   11   5   4   2
  0.1641818501   11   5   5   3
  0.2545364663   11   5   6   1
  -0.2301323259   11   5   6   4
  0.0592267368   11   5   7   5
  -0.2932800942   11   5   8   2
  -0.1253127143   11   5   8   6
  0.1956510673   11   5   9   3
  0.1253127143   11   5   9   7
  0.1199464455   11   5   10   1
  -0.3149382575   11   5   10   4
  0.0592267368   11   5   10   8
  0.3149382575   11   5   11   5
  -0.2650146488   11   6   3   2
  0.2528350352   11   6   5   1
  -0.2459923333   11   6   5   4
  0.0193272421   11   6   6   3
  -0.2117256703   11   6   7   2
  -0.2699404599   11   6   7   6
  -0.0332038692   11   6   8   5
  0.0241897358   11   6   9   1
  0.4983226451   11   6   9   4
  0.2699404599   11   6   9   8
  -0.0822765319   11   6   10   3
  -0.0332038692   11   6   10   7
  0.2578524152   11   6   11   2
  0.4983226451   11   6   11   6
  0.2015375368   11   7   1   1
  -0.0717349513   11   7   2   2
  0.3314182387   11   7   3   3
  0.2484865906   11   7   4   1
  -0.2411113396   11   7   4   4
  0.1014436240   11   7   5   5
  -0.2853330642   11   7   6   2
  -0.2036603478   11   7   6   6
  -0.2433178051   11   7   7   3
  0.2959806247   11   7   7   7
  -0.0329360348   11   7   8   1
  -0.4132026025   11   7   8   4
  0.2959806247   11   7   8   8
  0.2022841824   11   7   9   5
  -0.2036603478   11   7   9   9
  -0.2468881903   11   7   10   2
  -0.2022841824   11   7   10   6
  0.1014436240   11   7   10   10
  0.0443816614   11   7   11   3
  0.4132026025   11   7   11   7
  0.4480257210   11   8   3   1
  0.0004618660   11   8   4   3
  -0.4193901912   11   8   5   2
  -0.0818366729   11   8   6   5
  -0.0372162604   11   8   7   1
  -0.4704408997   11   8   7   4
  -0.1313073330   11   8   8   3
  0.3788283142   11   8   8   7
  0.1154979108   11   8   9   2
  0.3829049574   11   8   9   6
  0.1911365257   11   8   10   5
  0.0818366729   11   8   10   9
  -0.1139945613   11   8   11   1
  0.2337448652   11   8   11   4
  0.4704408997   11   8   11   8
  -0.6662288202   11   9   2   1
  0.6392029543   11   9   4   2
  0.5370831713   11   9   5   3
  0.0546434324   11   9   6   1
  0.9355206376   11   9   6   4
  0.4806018951   11   9   7   5
  0.0959704760   11   9   8   2
  0.5067825647   11   9   8   6
  0.0433517606   11   9   9   3
  -0.5067825647   11   9   9   7
  -0.1843041913   11   9   10   1
  0.2301323259   11   9   10   4
  0.4806018951   11   9   10   8
  -0.2301323259   11   9   11   5
  0.9355206376   11   9   11   9
  -0.1873092231   11   10   3   2
  0.1984757398   11   10   5   1
  -0.3134267586   11   10   5   4
  -0.1292900093   11   10   6   3
  -0.3098063895   11   10   7   2
  -0.1336863308   11   10   7   6
  0.1366194275   11   10   8   5
  -0.1683872407   11   10   9   1
  0.2459923333   11   10   9   4
  0.1336863308   11   10   9   8
  0.1891317124   11   10   10   3
  0.1366194275   11   10   10   7
  0.1704359008   11   10   11   2
  0.2459923333   11   10   11   6
  0.3134267586   11   10   11   10
  1.8489646426   11   11   1   1
  2.0015094670   11   11   2   2
  1.8162251118   11   11   3   3
  -0.1533885021   11   11   4   1
  2.2138422509   11   11   4   4
  1.8639825872   11   11   5   5
  0.2665174007   11   11   6   2
  2.1002348098   11   11   6   6
  0.0382918867   11   11   7   3
  1.9003793602   11   11   7   7
  -0.1140835939   11   11   8   1
  0.2411113396   11   11   8   4
  1.9003793602   11   11   8   8
  -0.1889498066   11   11   9   5
  2.1002348098   11   11   9   9
  0.1960542153   11   11   10   2
  0.1889498066   11   11   10   6
  1.8639825872   11   11   10   10
  -0.1441529963   11   11   11   3
  -0.2411113396   11   11   11   7
  2.2138422509   11   11   11   11
  -0.1741004563   12   1   1   1
  -0.1393825523   12   1   2   2
  0.0541484468   12   1   3   3
  -0.0766640519   12   1   4   1
  -0.0613155098   12   1   4   4
  0.0545463367   12   1   5   5
  0.1860940964   12   1   6   2
  -0.3636197185   12   1   6   6
  -0.0471299885   12   1   7   3
  0.2558978354   12   1   7   7
  -0.1346563618   12   1   8   1
  -0.2430211633   12   1   8   4
  0.2558978354   12   1   8   8
  -0.1319905831   12   1   9   5
  -0.3636197185   12   1   9   9
  -0.2765708041   12   1   10   2
  0.1319905831   12   1   10   6
  0.0545463367   12   1   10   10
  -0.1415526034   12   1   11   3
  0.2430211633   12   1   11   7
  -0.0613155098   12   1   11   11
  0.4313862143   12   1   12   1
  -0.1313750913   12   2   2   1
  -0.0543210248   12   2   4   2
  -0.0432502760   12   2   5   3
  0.1902943308   12   2   6   1
  0.2316690488   12   2   6   4
  -0.1752938395   12   2   7   5
  0.1375427671   12   2   8   2
  0.1250358879   12   2   8   6
  0.1468631273   12   2   9   3
  -0.1250358879   12   2   9   7
  -0.2836545100   12   2   10   1
  0.1089425531   12   2   10   4
  -0.1752938395   12   2   10   8
  -0.1089425531   12   2   11   5
  0.2316690488   12   2   11   9
  0.2866542192   12   2   12   2
  0.2570216923   12   3   3   1
  0.0400224339   12   3   4   3
  -0.1871863250   12   3   5   2
  -0.0643815798   12   3   6   5
  -0.0862539728   12   3   7   1
  -0.2878837725   12   3   7   4
  -0.1767916869   12   3   8   3
  0.5717025416   12   3   8   7
  0.0908351186   12   3   9   2
  -0.1243493577   12   3   9   6
  0.3746279744   12   3   10   5
  0.0643815798   12   3   10   9
  -0.1204036826   12   3   11   1
  -0.1972198936   12   3   11   4
  0.2878837725   12   3   11   8
  0.5283321314   12   3   12   3
  -0.1252348019   12   4   1   1
  -0.1063334102   12   4   2   2
  -0.0495638084   12   4   3   3
  -0.0476280319   12   4   4   1
  0.1441529963   12   4   4   4
  -0.1969074077   12   4   5   5
  0.2388968790   12   4   6   2
  -0.0509023700   12   4   6   6
  -0.1814461153   12   4   7   3
  0.0863675783   12   4   7   7
  -0.2676119575   12   4   8   1
  0.0443816614   12   4   8   4
  0.0863675783   12   4   8   8
  -0.1693744925   12   4   9   5
  -0.0509023700   12   4   9   9
  0.1291070054   12   4   10   2
  0.1693744925   12   4   10   6
  -0.1969074077   12   4   10   10
  -0.2464831129   12   4   11   3
  -0.0443816614   12   4   11   7
  0.1441529963   12   4   11   11
  0.1415526034   12   4   12   1
  0.2464831129   12   4   12   4
  -0.1385748131   12   5   3   2
  0.1633305280   12   5   5   1
  -0.1891317124   12   5   5   4
  -0.0761929004   12   5   6   3
  -0.2419166565   12   5   7   2
  0.0443616888   12   5   7   6
  0.3241740399   12   5   8   5
  -0.0988458164   12   5   9   1
  -0.0822765319   12   5   9   4
  -0.0443616888   12   5   9   8
  0.3496719183   12   5   10   3
  0.3241740399   12   5   10   7
  -0.1111915630   12   5   11   2
  -0.0822765319   12   5   11   6
  0.1891317124   12   5   11   10
  0.3496719183   12   5   12   5
  0.2515715576   12   6   2   1
  0.2230379235   12   6   4   2
  -0.1668424238   12   6   5   3
  -0.4037710399   12   6   6   1
  -0.0433517606   12   6   6   4
  0.0459175898   12   6   7   5
  0.1626008092   12   6   8   2
  -0.0224865444   12   6   8   6
  -0.3109524500   12   6   9   3
  0.0224865444   12   6   9   7
  0.1299615963   12   6   10   1
  0.1956510673   12   6   10   4
  0.0459175898   12   6   10   8
  -0.1956510673   12   6   11   5
  -0.0433517606   12   6   11   9
  -0.1468631273   12   6   12   2
  0.3109524500   12   6   12   6
  -0.0943032073   12   7   3   1
  -0.2404333109   12   7   4   3
  -0.2171602917   12   7   5   2
  0.0464005437   12   7   6   5
  0.3634150571   12   7   7   1
  0.1313073330   12   7   7   4
  0.5181693470   12   7   8   3
  -0.1833717472   12   7   8   7
  -0.0653967766   12   7   9   2
  0.0025070730   12   7   9   6
  0.3136407954   12   7   10   5
  -0.0464005437   12   7   10   9
  0.2498399800   12   7   11   1
  0.0140891610   12   7   11   4
  -0.1313073330   12   7   11   8
  -0.1767916869   12   7   12   3
  0.5181693470   12   7   12   7
  -0.3374263749   12   8   1   1
  0.1149564993   12   8   2   2
  -0.3658582237   12   8   3   3
  -0.4186321537   12   8   4   1
  0.0382918867   12   8   4   4
  0.2726893026   12   8   5   5
  0.2811168482   12   8   6   2
  -0.0870610340   12   8   6   6
  0.6559711307   12   8   7   3
  -0.2759516461   12   8   7   7
  0.3536932697   12   8   8   1
  0.2433178051   12   8   8   4
  -0.2759516461   12   8   8   8
  -0.1993603301   12   8   9   5
  -0.0870610340   12   8   9   9
  -0.2249756841   12   8   10   2
  0.1993603301   12   8   10   6
  0.2726893026   12   8   10   10
  0.1814461153   12   8   11   3
  -0.2433178051   12   8   11   7
  0.0382918867   12   8   11   11
  -0.0471299885   12   8   12   1
  -0.1814461153   12   8   12   4
  0.6559711307   12   8   12   8
  0.1441228875   12   9   3   2
  -0.1345599026   12   9   5   1
  -0.1292900093   12   9   5   4
  -0.2429267173   12   9   6   3
  -0.0927020749   12   9   7   2
  0.0096839230   12   9   7   6
  -0.0945198369   12   9   8   5
  -0.3154593032   12   9   9   1
  -0.0193272421   12   9   9   4
  -0.0096839230   12   9   9   8
  0.0761929004   12   9   10   3
  -0.0945198369   12   9   10   7
  0.2042887243   12   9   11   2
  -0.0193272421   12   9   11   6
  0.1292900093   12   9   11   10
  0.0761929004   12   9   12   5
  0.2429267173   12   9   12   9
  -0.6684549564   12   10   2   1
  0.3937341417   12   10   4   2
  0.7103888536   12   10   5   3
  0.2157788846   12   10   6   1
  0.5370831713   12   10   6   4
  0.6173212160   12   10   7   5
  -0.2859585419   12   10   8   2
  0.2905174918   12   10   8   6
  0.1668424238   12   10   9   3
  -0.2905174918   12   10   9   7
  0.0986529010   12   10   10   1
  -0.1641818501   12   10   10   4
  0.6173212160   12   10   10   8
  0.1641818501   12   10   11   5
  0.5370831713   12   10   11   9
  -0.0432502760   12   10   12   2
  -0.1668424238   12   10   12   6
  0.7103888536   12   10   12   10
  -0.1857443090   12   11   3   1
  -0.2731177573   12   11   4   3
  -0.1203635490   12   11   5   2
  -0.1631836064   12   11   6   5
  0.3081572818   12   11   7   1
  0.0004618660   12   11   7   4
  0.2404333109   12   11   8   3
  -0.1862592599   12   11   8   7
  0.2301640575   12   11   9   2
  -0.0255928471   12   11   9   6
  0.1605855032   12   11   10   5
  0.1631836064   12   11   10   9
  -0.0185491941   12   11   11   1
  0.1858008447   12   11   11   4
  -0.0004618660   12   11   11   8
  -0.0400224339   12   11   12   3
  0.2404333109   12   11   12   7
  0.2731177573   12   11   12   11
  2.3510128030   12   12   1   1
  1.9781107836   12   12   2   2
  2.3817137658   12   12   3   3
  0.3590971001   12   12   4   1
  1.8162251118   12   12   4   4
  2.0130591397   12   12   5   5
  -0.4003728925   12   12   6   2
  2.0033550586   12   12   6   6
  -0.3658582237   12   12   7   3
  2.2459549750   12   12   7   7
  -0.0661663406   12   12   8   1
  -0.3314182387   12   12   8   4
  2.2459549750   12   12   8   8
  0.2838818914   12   12   9   5
  2.0033550586   12   12   9   9
  -0.0497552868   12   12   10   2
  -0.2838818914   12   12   10   6
  2.0130591397   12   12   10   10
  0.0495638084   12   12   11   3
  0.3314182387   12   12   11   7
  1.8162251118   12   12   11   11
  0.0541484468   12   12   12   1
  -0.0495638084   12   12   12   4
  -0.3658582237   12   12   12   8
  2.3817137658   12   12   12   12
  -0.0904158303   13   1   3   2
  0.0678459079   13   1   5   1
  0.0709197496   13   1   5   4
  0.1613951738   13   1   6   3
  0.0958071941   13   1   7   2
  -0.1303202194   13   1   7   6
  -0.1463989785   13   1   8   5
  0.2091896930   13   1   9   1
  0.2414578185   13   1   9   4
  0.1303202194   13   1   9   8
  -0.2577981200   13   1   10   3
  -0.1463989785   13   1   10   7
  0.0634122535   13   1   11   2
  0.2414578185   13   1   11   6
  -0.0709197496   13   1   11   10
  -0.2577981200   13   1   12   5
  -0.1613951738   13   1   12   9
  0.3067412577   13   1   13   1
  -0.1025338733   13   2   3   1
  -0.0761443715   13   2   4   3
  0.0027326491   13   2   5   2
  0.0131364140   13   2   6   5
  0.1138670155   13   2   7   1
  0.1029913702   13   2   7   4
  0.1613587684   13   2   8   3
  0.2185999780   13   2   8   7
  -0.0185270290   13   2   9   2
  -0.3912302598   13   2   9   6
  0.3901744059   13   2   10   5
  -0.0131364140   13   2   10   9
  0.0767942015   13   2   11   1
  -0.3522858711   13   2   11   4
  -0.1029913702   13   2   11   8
  0.2433444700   13   2   12   3
  0.1613587684   13   2   12   7
  0.0761443715   13   2   12   11
  0.3920933499   13   2   13   2
  -0.1313750913   13   3   2   1
  -0.0543210248   13   3   4   2
  -0.0432502760   13   3   5   3
  0.1902943308   13   3   6   1
  0.2316690488   13   3   6   4
  -0.1752938395   13   3   7   5
  0.1375427671   13   3   8   2
  0.1250358879   13   3   8   6
  0.1468631273   13   3   9   3
  -0.1250358879   13   3   9   7
  -0.2836545100   13   3   10   1
  0.1089425531   13   3   10   4
  -0.1752938395   13   3   10   8
  -0.1089425531   13   3   11   5
  0.2316690488   13   3   11   9
  0.2866542192   13   3   12   2
  -0.1468631273   13   3   12   6