 &FCI NORB= 10,NELEC= ,MS0= ,
  ORBSYM=1,2,1,2,1,2,1,2,1,2,
  ISYM=1,
 /
  -43.1435986304711178718207520   1   1   0   0
  -39.7040303190195089655389893   2   2   0   0
  -2.8607328595132197612826985   3   1   0   0
  -37.8108358380125366693391697   3   3   0   0
  -3.7624750479780812995045380   4   2   0   0
  -36.3860299654301968530489830   4   4   0   0
  -0.7171691103324774330118885   5   1   0   0
  3.6343217652349331103778241   5   3   0   0
  -37.6610531023121666294173338   5   5   0   0
  -0.7385568708776446555930306   6   2   0   0
  3.2017448332244775599519926   6   4   0   0
  -35.9257979626131316308601527   6   6   0   0
  0.4001102780866538921600295   7   1   0   0
  -2.1047132155684673548989849   7   3   0   0
  -2.4893690429180828083133292   7   5   0   0
  -32.3646607462697488699632231   7   7   0   0
  -1.1002530274323834014182921   8   2   0   0
  1.4082595287012291684902721   8   4   0   0
  3.4752004968040259846873141   8   6   0   0
  -31.5237723746223963416923652   8   8   0   0
  -0.4817151182685173171904580   9   1   0   0
  0.5983634149426908521718360   9   3   0   0
  0.5676173278286622547739171   9   5   0   0
  -3.6512332550392088137414248   9   7   0   0
  -31.6275368521116675424309506   9   9   0   0
  0.2092828766226582093423758   10   2   0   0
  -0.2755505737438711522102608   10   4   0   0
  -0.6727660694883308423186463   10   6   0   0
  -2.8182870990380548548159823   10   8   0   0
  -33.9320545474920010065034148   10   10   0   0
  5.6624948266   1   1   1   1
  1.7058311286   2   1   2   1
  4.7319952990   2   2   1   1
  4.8884530657   2   2   2   2
  0.9189716301   3   1   1   1
  -0.1529490965   3   1   2   2
  1.0572382916   3   1   3   1
  -1.1688714817   3   2   2   1
  1.3407728413   3   2   3   2
  4.6608681609   3   3   1   1
  4.4859715937   3   3   2   2
  0.1725294770   3   3   3   1
  4.7080380355   3   3   3   3
  0.5351058622   4   1   2   1
  0.1501564318   4   1   3   2
  0.6643619300   4   1   4   1
  0.9535397345   4   2   1   1
  0.2507265212   4   2   2   2
  0.6947019974   4   2   3   1
  -0.0592315098   4   2   3   3
  0.9801818853   4   2   4   2
  1.1172294698   4   3   2   1
  -1.2258422305   4   3   3   2
  -0.1027758360   4   3   4   1
  1.2976307618   4   3   4   3
  4.5538688882   4   4   1   1
  4.6291824359   4   4   2   2
  -0.0760637091   4   4   3   1
  4.4651102462   4   4   3   3
  0.0869937097   4   4   4   2
  4.5868603584   4   4   4   4
  0.0126375783   5   1   1   1
  0.3701217512   5   1   2   2
  -0.3517963384   5   1   3   1
  -0.2423696004   5   1   3   3
  0.2726906580   5   1   4   2
  0.1639394952   5   1   4   4
  0.6073235888   5   1   5   1
  0.5541819583   5   2   2   1
  0.0381568260   5   2   3   2
  0.5871212331   5   2   4   1
  -0.1448367168   5   2   4   3
  0.6419697689   5   2   5   2
  -0.9669698428   5   3   1   1
  -0.0629949180   5   3   2   2
  -0.8948923232   5   3   3   1
  -0.1707886014   5   3   3   3
  -0.7565632105   5   3   4   2
  0.0490496230   5   3   4   4
  0.1589231223   5   3   5   1
  0.9103229303   5   3   5   3
  1.4732087122   5   4   2   1
  -1.2225976779   5   4   3   2
  0.2627167004   5   4   4   1
  1.1896652978   5   4   4   3
  0.2973951040   5   4   5   2
  1.4417408878   5   4   5   4
  5.2246861197   5   5   1   1
  4.6622893985   5   5   2   2
  0.5572666881   5   5   3   1
  4.5786640168   5   5   3   3
  0.6213986202   5   5   4   2
  4.5176507492   5   5   4   4
  0.0431545706   5   5   5   1
  -0.6256768263   5   5   5   3
  4.9784224821   5   5   5   5
  -0.0338374280   6   1   2   1
  -0.2082676089   6   1   3   2
  -0.2131954022   6   1   4   1
  -0.0641130876   6   1   4   3
  0.0234206280   6   1   5   2
  0.0186940504   6   1   5   4
  0.4335049892   6   1   6   1
  -0.0448263329   6   2   1   1
  0.3090140235   6   2   2   2
  -0.3444104631   6   2   3   1
  -0.0020249691   6   2   3   3
  -0.0204238243   6   2   4   2
  0.0395496170   6   2   4   4
  0.2784687872   6   2   5   1
  0.0804184522   6   2   5   3
  0.0248312112   6   2   5   5
  0.4062366806   6   2   6   2
  -0.5110052017   6   3   2   1
  0.0636855052   6   3   3   2
  -0.4253590470   6   3   4   1
  -0.0547621640   6   3   4   3
  -0.3863872581   6   3   5   2
  -0.2058992726   6   3   5   4
  0.1080404613   6   3   6   1
  0.4850258262   6   3   6   3
  -0.7213098822   6   4   1   1
  -0.1004109231   6   4   2   2
  -0.6092178437   6   4   3   1
  -0.1387561856   6   4   3   3
  -0.5411735106   6   4   4   2
  -0.0686002628   6   4   4   4
  0.0646341147   6   4   5   1
  0.5507168091   6   4   5   3
  -0.3937012155   6   4   5   5
  0.1505625493   6   4   6   2
  0.5658671590   6   4   6   4
  0.7809816684   6   5   2   1
  -0.6790846177   6   5   3   2
  0.1031957195   6   5   4   1
  0.6556758569   6   5   4   3
  0.1168422428   6   5   5   2
  0.7131747917   6   5   5   4
  0.0116128191   6   5   6   1
  -0.1888430411   6   5   6   3
  0.6595856871   6   5   6   5
  5.2246861197   6   6   1   1
  4.6622893985   6   6   2   2
  0.5572666881   6   6   3   1
  4.5786640168   6   6   3   3
  0.6213986202   6   6   4   2
  4.5176507492   6   6   4   4
  0.0431545706   6   6   5   1
  -0.6256768263   6   6   5   3
  4.9784224821   6   6   5   5
  0.0248312112   6   6   6   2
  -0.3937012155   6   6   6   4
  4.9784224821   6   6   6   6
  0.0186901013   7   1   1   1
  -0.0885460124   7   1   2   2
  0.1018993142   7   1   3   1
  -0.1329279162   7   1   3   3
  0.1417395132   7   1   4   2
  0.0522752088   7   1   4   4
  0.0730767877   7   1   5   1
  0.0379938886   7   1   5   3
  -0.0184065945   7   1   5   5
  -0.2219888590   7   1   6   2
  -0.0865709570   7   1   6   4
  -0.0184065945   7   1   6   6
  0.2439094774   7   1   7   1
  -0.1466988863   7   2   2   1
  0.2447802206   7   2   3   2
  0.0897493226   7   2   4   1
  -0.0385932594   7   2   4   3
  -0.0639531983   7   2   5   2
  -0.0353212294   7   2   5   4
  -0.2858182247   7   2   6   1
  0.1619473135   7   2   6   3
  -0.1158581168   7   2   6   5
  0.3826060817   7   2   7   2
  0.2144040116   7   3   1   1
  0.3669639174   7   3   2   2
  -0.1506669444   7   3   3   1
  0.0476274938   7   3   3   3
  0.1664217569   7   3   4   2
  0.1288889255   7   3   4   4
  0.2864818161   7   3   5   1
  -0.0389280610   7   3   5   3
  0.1203588377   7   3   5   5
  0.2800623229   7   3   6   2
  -0.1511570618   7   3   6   4
  0.1203588377   7   3   6   6
  -0.1062020625   7   3   7   1
  0.3968190452   7   3   7   3
  0.2317806291   7   4   2   1
  0.1918308911   7   4   3   2
  0.4055893131   7   4   4   1
  -0.1918216718   7   4   4   3
  0.3690036261   7   4   5   2
  -0.0077036054   7   4   5   4
  -0.1058348998   7   4   6   1
  -0.3534522472   7   4   6   3
  -0.2281711438   7   4   6   5
  -0.0536551134   7   4   7   2
  0.5700224135   7   4   7   4
  0.7213098822   7   5   1   1
  0.1004109231   7   5   2   2
  0.6092178437   7   5   3   1
  0.1387561856   7   5   3   3
  0.5411735106   7   5   4   2
  0.0686002628   7   5   4   4
  -0.0646341147   7   5   5   1
  -0.5507168091   7   5   5   3
  0.3937012155   7   5   5   5
  -0.1505625493   7   5   6   2
  -0.5658671590   7   5   6   4
  0.3937012155   7   5   6   6
  0.0865709570   7   5   7   1
  0.1511570618   7   5   7   3
  0.5658671590   7   5   7   5
  -1.4732087122   7   6   2   1
  1.2225976779   7   6   3   2
  -0.2627167004   7   6   4   1
  -1.1896652978   7   6   4   3
  -0.2973951040   7   6   5   2
  -1.4417408878   7   6   5   4
  -0.0186940504   7   6   6   1
  0.2058992726   7   6   6   3
  -0.7131747917   7   6   6   5
  0.0353212294   7   6   7   2
  0.0077036054   7   6   7   4
  1.4417408878   7   6   7   6
  4.5538688882   7   7   1   1
  4.6291824359   7   7   2   2
  -0.0760637091   7   7   3   1
  4.4651102462   7   7   3   3
  0.0869937097   7   7   4   2
  4.5868603584   7   7   4   4
  0.1639394952   7   7   5   1
  0.0490496230   7   7   5   3
  4.5176507492   7   7   5   5
  0.0395496170   7   7   6   2
  -0.0686002628   7   7   6   4
  4.5176507492   7   7   6   6
  0.0522752088   7   7   7   1
  0.1288889255   7   7   7   3
  0.0686002628   7   7   7   5
  4.5868603584   7   7   7   7
  0.0788905165   8   1   2   1
  -0.0366121266   8   1   3   2
  0.0237765774   8   1   4   1
  0.1108313762   8   1   4   3
  -0.0595179719   8   1   5   2
  -0.0389199304   8   1   5   4
  -0.1365769055   8   1   6   1
  -0.1979959409   8   1   6   3
  0.0778997240   8   1   6   5
  -0.0895642793   8   1   7   2
  0.0957345632   8   1   7   4
  0.0389199304   8   1   7   6
  0.2242244695   8   1   8   1
  0.1036415348   8   2   1   1
  0.0903831732   8   2   2   2
  0.0116812430   8   2   3   1
  0.1858473776   8   2   3   3
  -0.0915109449   8   2   4   2
  0.0224161803   8   2   4   4
  -0.1165159548   8   2   5   1
  -0.0513065667   8   2   5   3
  0.0223658446   8   2   5   5
  0.0723458026   8   2   6   2
  -0.1433869557   8   2   6   4
  0.0223658446   8   2   6   6
  -0.1308588975   8   2   7   1
  0.1785262861   8   2   7   3
  0.1433869557   8   2   7   5
  0.0224161803   8   2   7   7
  0.2397075286   8   2   8   2
  0.0042582370   8   3   2   1
  0.1325871001   8   3   3   2
  0.1231297100   8   3   4   1
  0.0542911135   8   3   4   3
  -0.0280820651   8   3   5   2
  0.0318907906   8   3   5   4
  -0.2800484269   8   3   6   1
  0.0223567245   8   3   6   3
  0.2274447434   8   3   6   5
  0.2654940679   8   3   7   2
  -0.2394906231   8   3   7   4
  -0.0318907906   8   3   7   6
  0.0119531521   8   3   8   1
  0.4702202698   8   3   8   3
  -0.2144040116   8   4   1   1
  -0.3669639174   8   4   2   2
  0.1506669444   8   4   3   1
  -0.0476274938   8   4   3   3
  -0.1664217569   8   4   4   2
  -0.1288889255   8   4   4   4
  -0.2864818161   8   4   5   1
  0.0389280610   8   4   5   3
  -0.1203588377   8   4   5   5
  -0.2800623229   8   4   6   2
  0.1511570618   8   4   6   4
  -0.1203588377   8   4   6   6
  0.1062020625   8   4   7   1
  -0.3968190452   8   4   7   3
  -0.1511570618   8   4   7   5
  -0.1288889255   8   4   7   7
  -0.1785262861   8   4   8   2
  0.3968190452   8   4   8   4
  -0.5110052017   8   5   2   1
  0.0636855052   8   5   3   2
  -0.4253590470   8   5   4   1
  -0.0547621640   8   5   4   3
  -0.3863872581   8   5   5   2
  -0.2058992726   8   5   5   4
  0.1080404613   8   5   6   1
  0.4850258262   8   5   6   3
  -0.1888430411   8   5   6   5
  0.1619473135   8   5   7   2
  -0.3534522472   8   5   7   4
  0.2058992726   8   5   7   6
  -0.1979959409   8   5   8   1
  0.0223567245   8   5   8   3
  0.4850258262   8   5   8   5
  -0.9669698428   8   6   1   1
  -0.0629949180   8   6   2   2
  -0.8948923232   8   6   3   1
  -0.1707886014   8   6   3   3
  -0.7565632105   8   6   4   2
  0.0490496230   8   6   4   4
  0.1589231223   8   6   5   1
  0.9103229303   8   6   5   3
  -0.6256768263   8   6   5   5
  0.0804184522   8   6   6   2
  0.5507168091   8   6   6   4
  -0.6256768263   8   6   6   6
  0.0379938886   8   6   7   1
  -0.0389280610   8   6   7   3
  -0.5507168091   8   6   7   5
  0.0490496230   8   6   7   7
  -0.0513065667   8   6   8   2
  0.0389280610   8   6   8   4
  0.9103229303   8   6   8   6
  -1.1172294698   8   7   2   1
  1.2258422305   8   7   3   2
  0.1027758360   8   7   4   1
  -1.2976307618   8   7   4   3
  0.1448367168   8   7   5   2
  -1.1896652978   8   7   5   4
  0.0641130876   8   7   6   1
  0.0547621640   8   7   6   3
  -0.6556758569   8   7   6   5
  0.0385932594   8   7   7   2
  0.1918216718   8   7   7   4
  1.1896652978   8   7   7   6
  -0.1108313762   8   7   8   1
  -0.0542911135   8   7   8   3
  0.0547621640   8   7   8   5
  1.2976307618   8   7   8   7
  4.6608681609   8   8   1   1
  4.4859715937   8   8   2   2
  0.1725294770   8   8   3   1
  4.7080380355   8   8   3   3
  -0.0592315098   8   8   4   2
  4.4651102462   8   8   4   4
  -0.2423696004   8   8   5   1
  -0.1707886014   8   8   5   3
  4.5786640168   8   8   5   5
  -0.0020249691   8   8   6   2
  -0.1387561856   8   8   6   4
  4.5786640168   8   8   6   6
  -0.1329279162   8   8   7   1
  0.0476274938   8   8   7   3
  0.1387561856   8   8   7   5
  4.4651102462   8   8   7   7
  0.1858473776   8   8   8   2
  -0.0476274938   8   8   8   4
  -0.1707886014   8   8   8   6
  4.7080380355   8   8   8   8
  0.0652140626   9   1   1   1
  0.0215866301   9   1   2   2
  0.0377474424   9   1   3   1
  0.0298525947   9   1   3   3
  0.0199221326   9   1   4   2
  0.0855893784   9   1   4   4
  0.0015057778   9   1   5   1
  0.0485287921   9   1   5   3
  -0.0294931671   9   1   5   5
  -0.1231309489   9   1   6   2
  -0.1899558395   9   1   6   4
  -0.0294931671   9   1   6   6
  0.1145355791   9   1   7   1
  0.0878343349   9   1   7   3
  0.1899558395   9   1   7   5
  0.0855893784   9   1   7   7
  0.0994743882   9   1   8   2
  -0.0878343349   9   1   8   4
  0.0485287921   9   1   8   6
  0.0298525947   9   1   8   8
  0.2124669111   9   1   9   1
  -0.0010315848   9   2   2   1
  0.0161634215   9   2   3   2
  0.0029309646   9   2   4   1
  0.0721206540   9   2   4   3
  -0.0781290709   9   2   5   2
  -0.0368038104   9   2   5   4
  -0.1361850172   9   2   6   1
  -0.0680368875   9   2   6   3
  -0.2314971138   9   2   6   5
  0.0227043046   9   2   7   2
  0.2814144342   9   2   7   4
  0.0368038104   9   2   7   6
  0.1184621408   9   2   8   1
  -0.1945285692   9   2   8   3
  -0.0680368875   9   2   8   5
  -0.0721206540   9   2   8   7
  0.3317741082   9   2   9   2
  -0.1036415348   9   3   1   1
  -0.0903831732   9   3   2   2
  -0.0116812430   9   3   3   1
  -0.1858473776   9   3   3   3
  0.0915109449   9   3   4   2
  -0.0224161803   9   3   4   4
  0.1165159548   9   3   5   1
  0.0513065667   9   3   5   3
  -0.0223658446   9   3   5   5
  -0.0723458026   9   3   6   2
  0.1433869557   9   3   6   4
  -0.0223658446   9   3   6   6
  0.1308588975   9   3   7   1
  -0.1785262861   9   3   7   3
  -0.1433869557   9   3   7   5
  -0.0224161803   9   3   7   7
  -0.2397075286   9   3   8   2
  0.1785262861   9   3   8   4
  0.0513065667   9   3   8   6
  -0.1858473776   9   3   8   8
  -0.0994743882   9   3   9   1
  0.2397075286   9   3   9   3
  -0.1466988863   9   4   2   1
  0.2447802206   9   4   3   2
  0.0897493226   9   4   4   1
  -0.0385932594   9   4   4   3
  -0.0639531983   9   4   5   2
  -0.0353212294   9   4   5   4
  -0.2858182247   9   4   6   1
  0.1619473135   9   4   6   3
  -0.1158581168   9   4   6   5
  0.3826060817   9   4   7   2
  -0.0536551134   9   4   7   4
  0.0353212294   9   4   7   6
  -0.0895642793   9   4   8   1
  0.2654940679   9   4   8   3
  0.1619473135   9   4   8   5
  0.0385932594   9   4   8   7
  0.0227043046   9   4   9   2
  0.3826060817   9   4   9   4
  0.0448263329   9   5   1   1
  -0.3090140235   9   5   2   2
  0.3444104631   9   5   3   1
  0.0020249691   9   5   3   3
  0.0204238243   9   5   4   2
  -0.0395496170   9   5   4   4
  -0.2784687872   9   5   5   1
  -0.0804184522   9   5   5   3
  -0.0248312112   9   5   5   5
  -0.4062366806   9   5   6   2
  -0.1505625493   9   5   6   4
  -0.0248312112   9   5   6   6
  0.2219888590   9   5   7   1
  -0.2800623229   9   5   7   3
  0.1505625493   9   5   7   5
  -0.0395496170   9   5   7   7
  -0.0723458026   9   5   8   2
  0.2800623229   9   5   8   4
  -0.0804184522   9   5   8   6
  0.0020249691   9   5   8   8
  0.1231309489   9   5   9   1
  0.0723458026   9   5   9   3
  0.4062366806   9   5   9   5
  -0.5541819583   9   6   2   1
  -0.0381568260   9   6   3   2
  -0.5871212331   9   6   4   1
  0.1448367168   9   6   4   3
  -0.6419697689   9   6   5   2
  -0.2973951040   9   6   5   4
  -0.0234206280   9   6   6   1
  0.3863872581   9   6   6   3
  -0.1168422428   9   6   6   5
  0.0639531983   9   6   7   2
  -0.3690036261   9   6   7   4
  0.2973951040   9   6   7   6
  0.0595179719   9   6   8   1
  0.0280820651   9   6   8   3
  0.3863872581   9   6   8   5
  -0.1448367168   9   6   8   7
  0.0781290709   9   6   9   2
  0.0639531983   9   6   9   4
  0.6419697689   9   6   9   6
  0.9535397345   9   7   1   1
  0.2507265212   9   7   2   2
  0.6947019974   9   7   3   1
  -0.0592315098   9   7   3   3
  0.9801818853   9   7   4   2
  0.0869937097   9   7   4   4
  0.2726906580   9   7   5   1
  -0.7565632105   9   7   5   3
  0.6213986202   9   7   5   5
  -0.0204238243   9   7   6   2
  -0.5411735106   9   7   6   4
  0.6213986202   9   7   6   6
  0.1417395132   9   7   7   1
  0.1664217569   9   7   7   3
  0.5411735106   9   7   7   5
  0.0869937097   9   7   7   7
  -0.0915109449   9   7   8   2
  -0.1664217569   9   7   8   4
  -0.7565632105   9   7   8   6
  -0.0592315098   9   7   8   8
  0.0199221326   9   7   9   1
  0.0915109449   9   7   9   3
  0.0204238243   9   7   9   5
  0.9801818853   9   7   9   7
  1.1688714817   9   8   2   1
  -1.3407728413   9   8   3   2
  -0.1501564318   9   8   4   1
  1.2258422305   9   8   4   3
  -0.0381568260   9   8   5   2
  1.2225976779   9   8   5   4
  0.2082676089   9   8   6   1
  -0.0636855052   9   8   6   3
  0.6790846177   9   8   6   5
  -0.2447802206   9   8   7   2
  -0.1918308911   9   8   7   4
  -1.2225976779   9   8   7   6
  0.0366121266   9   8   8   1
  -0.1325871001   9   8   8   3
  -0.0636855052   9   8   8   5
  -1.2258422305   9   8   8   7
  -0.0161634215   9   8   9   2
  -0.2447802206   9   8   9   4
  0.0381568260   9   8   9   6
  1.3407728413   9   8   9   8
  4.7319952990   9   9   1   1
  4.8884530657   9   9   2   2
  -0.1529490965   9   9   3   1
  4.4859715937   9   9   3   3
  0.2507265212   9   9   4   2
  4.6291824359   9   9   4   4
  0.3701217512   9   9   5   1
  -0.0629949180   9   9   5   3
  4.6622893985   9   9   5   5
  0.3090140235   9   9   6   2
  -0.1004109231   9   9   6   4
  4.6622893985   9   9   6   6
  -0.0885460124   9   9   7   1
  0.3669639174   9   9   7   3
  0.1004109231   9   9   7   5
  4.6291824359   9   9   7   7
  0.0903831732   9   9   8   2
  -0.3669639174   9   9   8   4
  -0.0629949180   9   9   8   6
  4.4859715937   9   9   8   8
  0.0215866301   9   9   9   1
  -0.0903831732   9   9   9   3
  -0.3090140235   9   9   9   5
  0.2507265212   9   9   9   7
  4.8884530657   9   9   9   9
  0.0402994121   10   1   2   1
  -0.0289453093   10   1   3   2
  0.0049513839   10   1   4   1
  0.0174962359   10   1   4   3
  0.0010948793   10   1   5   2
  -0.0359798861   10   1   5   4
  -0.0011172687   10   1   6   1
  -0.1181085444   10   1   6   3
  0.2928263308   10   1   6   5
  -0.1097471575   10   1   7   2
  -0.1925932833   10   1   7   4
  0.0359798861   10   1   7   6
  0.1069059256   10   1   8   1
  0.2066143859   10   1   8   3
  -0.1181085444   10   1   8   5
  -0.0174962359   10   1   8   7
  -0.2114588919   10   1   9   2
  -0.1097471575   10   1   9   4
  -0.0010948793   10   1   9   6
  0.0289453093   10   1   9   8
  0.3186443873   10   1   10   1
  -0.0652140626   10   2   1   1
  -0.0215866301   10   2   2   2
  -0.0377474424   10   2   3   1
  -0.0298525947   10   2   3   3
  -0.0199221326   10   2   4   2
  -0.0855893784   10   2   4   4
  -0.0015057778   10   2   5   1
  -0.0485287921   10   2   5   3
  0.0294931671   10   2   5   5
  0.1231309489   10   2   6   2
  0.1899558395   10   2   6   4
  0.0294931671   10   2   6   6
  -0.1145355791   10   2   7   1
  -0.0878343349   10   2   7   3
  -0.1899558395   10   2   7   5
  -0.0855893784   10   2   7   7
  -0.0994743882   10   2   8   2
  0.0878343349   10   2   8   4
  -0.0485287921   10   2   8   6
  -0.0298525947   10   2   8   8
  -0.2124669111   10   2   9   1
  0.0994743882   10   2   9   3
  -0.1231309489   10   2   9   5
  -0.0199221326   10   2   9   7
  -0.0215866301   10   2   9   9
  0.2124669111   10   2   10   2
  0.0788905165   10   3   2   1
  -0.0366121266   10   3   3   2
  0.0237765774   10   3   4   1
  0.1108313762   10   3   4   3
  -0.0595179719   10   3   5   2
  -0.0389199304   10   3   5   4
  -0.1365769055   10   3   6   1
  -0.1979959409   10   3   6   3
  0.0778997240   10   3   6   5
  -0.0895642793   10   3   7   2
  0.0957345632   10   3   7   4
  0.0389199304   10   3   7   6
  0.2242244695   10   3   8   1
  0.0119531521   10   3   8   3
  -0.1979959409   10   3   8   5
  -0.1108313762   10   3   8   7
  0.1184621408   10   3   9   2
  -0.0895642793   10   3   9   4
  0.0595179719   10   3   9   6
  0.0366121266   10   3   9   8
  0.1069059256   10   3   10   1
  0.2242244695   10   3   10   3
  -0.0186901013   10   4   1   1
  0.0885460124   10   4   2   2
  -0.1018993142   10   4   3   1
  0.1329279162   10   4   3   3
  -0.1417395132   10   4   4   2
  -0.0522752088   10   4   4   4
  -0.0730767877   10   4   5   1
  -0.0379938886   10   4   5   3
  0.0184065945   10   4   5   5
  0.2219888590   10   4   6   2
  0.0865709570   10   4   6   4
  0.0184065945   10   4   6   6
  -0.2439094774   10   4   7   1
  0.1062020625   10   4   7   3
  -0.0865709570   10   4   7   5
  -0.0522752088   10   4   7   7
  0.1308588975   10   4   8   2
  -0.1062020625   10   4   8   4
  -0.0379938886   10   4   8   6
  0.1329279162   10   4   8   8
  -0.1145355791   10   4   9   1
  -0.1308588975   10   4   9   3
  -0.2219888590   10   4   9   5
  -0.1417395132   10   4   9   7
  0.0885460124   10   4   9   9
  0.1145355791   10   4   10   2
  0.2439094774   10   4   10   4
  -0.0338374280   10   5   2   1
  -0.2082676089   10   5   3   2
  -0.2131954022   10   5   4   1
  -0.0641130876   10   5   4   3
  0.0234206280   10   5   5   2
  0.0186940504   10   5   5   4
  0.4335049892   10   5   6   1
  0.1080404613   10   5   6   3
  0.0116128191   10   5   6   5
  -0.2858182247   10   5   7   2
  -0.1058348998   10   5   7   4
  -0.0186940504   10   5   7   6
  -0.1365769055   10   5   8   1
  -0.2800484269   10   5   8   3
  0.1080404613   10   5   8   5
  0.0641130876   10   5   8   7
  -0.1361850172   10   5   9   2
  -0.2858182247   10   5   9   4
  -0.0234206280   10   5   9   6
  0.2082676089   10   5   9   8
  -0.0011172687   10   5   10   1
  -0.1365769055   10   5   10   3
  0.4335049892   10   5   10   5
  0.0126375783   10   6   1   1
  0.3701217512   10   6   2   2
  -0.3517963384   10   6   3   1
  -0.2423696004   10   6   3   3
  0.2726906580   10   6   4   2
  0.1639394952   10   6   4   4
  0.6073235888   10   6   5   1
  0.1589231223   10   6   5   3
  0.0431545706   10   6   5   5
  0.2784687872   10   6   6   2
  0.0646341147   10   6   6   4
  0.0431545706   10   6   6   6
  0.0730767877   10   6   7   1
  0.2864818161   10   6   7   3
  -0.0646341147   10   6   7   5
  0.1639394952   10   6   7   7
  -0.1165159548   10   6   8   2
  -0.2864818161   10   6   8   4
  0.1589231223   10   6   8   6
  -0.2423696004   10   6   8   8
  0.0015057778   10   6   9   1
  0.1165159548   10   6   9   3
  -0.2784687872   10   6   9   5
  0.2726906580   10   6   9   7
  0.3701217512   10   6   9   9
  -0.0015057778   10   6   10   2
  -0.0730767877   10   6   10   4
  0.6073235888   10   6   10   6
  -0.5351058622   10   7   2   1
  -0.1501564318   10   7   3   2
  -0.6643619300   10   7   4   1
  0.1027758360   10   7   4   3
  -0.5871212331   10   7   5   2
  -0.2627167004   10   7   5   4
  0.2131954022   10   7   6   1
  0.4253590470   10   7   6   3
  -0.1031957195   10   7   6   5
  -0.0897493226   10   7   7   2
  -0.4055893131   10   7   7   4
  0.2627167004   10   7   7   6
  -0.0237765774   10   7   8   1
  -0.1231297100   10   7   8   3
  0.4253590470   10   7   8   5
  -0.1027758360   10   7   8   7
  -0.0029309646   10   7   9   2
  -0.0897493226   10   7   9   4
  0.5871212331   10   7   9   6
  0.1501564318   10   7   9   8
  -0.0049513839   10   7   10   1
  -0.0237765774   10   7   10   3
  0.2131954022   10   7   10   5
  0.6643619300   10   7   10   7
  0.9189716301   10   8   1   1
  -0.1529490965   10   8   2   2
  1.0572382916   10   8   3   1
  0.1725294770   10   8   3   3
  0.6947019974   10   8   4   2
  -0.0760637091   10   8   4   4
  -0.3517963384   10   8   5   1
  -0.8948923232   10   8   5   3
  0.5572666881   10   8   5   5
  -0.3444104631   10   8   6   2
  -0.6092178437   10   8   6   4
  0.5572666881   10   8   6   6
  0.1018993142   10   8   7   1
  -0.1506669444   10   8   7   3
  0.6092178437   10   8   7   5
  -0.0760637091   10   8   7   7
  0.0116812430   10   8   8   2
  0.1506669444   10   8   8   4
  -0.8948923232   10   8   8   6
  0.1725294770   10   8   8   8
  0.0377474424   10   8   9   1
  -0.0116812430   10   8   9   3
  0.3444104631   10   8   9   5
  0.6947019974   10   8   9   7
  -0.1529490965   10   8   9   9
  -0.0377474424   10   8   10   2
  -0.1018993142   10   8   10   4
  -0.3517963384   10   8   10   6
  1.0572382916   10   8   10   8
  -1.7058311286   10   9   2   1
  1.1688714817   10   9   3   2
  -0.5351058622   10   9   4   1
  -1.1172294698   10   9   4   3
  -0.5541819583   10   9   5   2
  -1.4732087122   10   9   5   4
  0.0338374280   10   9   6   1
  0.5110052017   10   9   6   3
  -0.7809816684   10   9   6   5
  0.1466988863   10   9   7   2
  -0.2317806291   10   9   7   4
  1.4732087122   10   9   7   6
  -0.0788905165   10   9   8   1
  -0.0042582370   10   9   8   3
  0.5110052017   10   9   8   5
  1.1172294698   10   9   8   7
  0.0010315848   10   9   9   2
  0.1466988863   10   9   9   4
  0.5541819583   10   9   9   6
  -1.1688714817   10   9   9   8
  -0.0402994121   10   9   10   1
  -0.0788905165   10   9   10   3
  0.0338374280   10   9   10   5
  0.5351058622   10   9   10   7
  1.7058311286   10   9   10   9
  5.6624948266   10   10   1   1
  4.7319952990   10   10   2   2
  0.9189716301   10   10   3   1
  4.6608681609   10   10   3   3
  0.9535397345   10   10   4   2
  4.5538688882   10   10   4   4
  0.0126375783   10   10   5   1
  -0.9669698428   10   10   5   3
  5.2246861197   10   10   5   5
  -0.0448263329   10   10   6   2
  -0.7213098822   10   10   6   4
  5.2246861197   10   10   6   6
  0.0186901013   10   10   7   1
  0.2144040116   10   10   7   3
  0.7213098822   10   10   7   5
  4.5538688882   10   10   7   7
  0.1036415348   10   10   8   2
  -0.2144040116   10   10   8   4
  -0.9669698428   10   10   8   6
  4.6608681609   10   10   8   8
  0.0652140626   10   10   9   1
  -0.1036415348   10   10   9   3
  0.0448263329   10   10   9   5
  0.9535397345   10   10   9   7
  4.7319952990   10   10   9   9
  -0.0652140626   10   10   10   2
  -0.0186901013   10   10   10   4
  0.0126375783   10   10   10   6
  0.9189716301   10   10   10   8
  5.6624948266   10   10   10   10
  180.0396851691772326   0   0   0   0
