 &FCI NORB= 12,NELEC= ,MS0= ,
  ORBSYM=1,2,1,2,1,2,1,2,1,2,1,2,
  ISYM=1,
 /
  -47.3797423540038877831648279   1   1   0   0
  -44.0871547676676840410436853   2   2   0   0
  -2.8766869975976150364260775   3   1   0   0
  -42.3968213362327830395770434   3   3   0   0
  -3.8682172204088782763165000   4   2   0   0
  -41.0063300710844558238932223   4   4   0   0
  -0.9105568017151745019432951   5   1   0   0
  4.2595572925690916576968448   5   3   0   0
  -39.9947609904726064655733353   5   5   0   0
  -1.0443834378009231311779104   6   2   0   0
  3.8155938172427625865168466   6   4   0   0
  -41.8241787238619266986461298   6   6   0   0
  -0.2095287910087382243773391   7   1   0   0
  0.8591475056204331828269005   7   3   0   0
  3.1660670245807125411374727   7   5   0   0
  -40.2962399633668439946632134   7   7   0   0
  -0.6374754945177216747254079   8   2   0   0
  2.3698126809094093303542650   8   4   0   0
  2.4777815874956266029016660   8   6   0   0
  -36.5609727763444638526380004   8   8   0   0
  -0.2898504886524627677246713   9   1   0   0
  1.4201695073510207656397597   9   3   0   0
  1.6316684119822006948652415   9   5   0   0
  3.6645572431888462361371239   9   7   0   0
  -35.5624177964168737275940657   9   9   0   0
  0.7868277068159410525538533   10   2   0   0
  -0.8185185369228773488714523   10   4   0   0
  -0.6738353253882700677479534   10   6   0   0
  -4.1300570293619616180080811   10   8   0   0
  -35.2166706112278475870880357   10   10   0   0
  -0.3706572832216597501719946   11   1   0   0
  0.3674900229745565738426194   11   3   0   0
  0.4569748246455380691344317   11   5   0   0
  0.9817531983880147805621164   11   7   0   0
  3.7968953500732482986279592   11   9   0   0
  -35.5881589705750442931275757   11   11   0   0
  0.1430702750005714007919266   12   2   0   0
  -0.1842383626363855997354335   12   4   0   0
  -0.1597330932073492970602047   12   6   0   0
  -0.8726764883914969184175447   12   8   0   0
  2.8506002044855622834518272   12   10   0   0
  -38.0588344608817266134792590   12   12   0   0
  5.2101246234   1   1   1   1
  1.6757910188   2   1   2   1
  4.3080161813   2   2   1   1
  4.5141942062   2   2   2   2
  0.8958224453   3   1   1   1
  -0.2038894861   3   1   2   2
  1.0912411956   3   1   3   1
  -1.1262339278   3   2   2   1
  1.3345420189   3   2   3   2
  4.2588214352   3   3   1   1
  4.1098360564   3   3   2   2
  0.1478580948   3   3   3   1
  4.2349618653   3   3   3   3
  0.5497731713   4   1   2   1
  0.1956335866   4   1   3   2
  0.7335507657   4   1   4   1
  0.9272089603   4   2   1   1
  0.2019256653   4   2   2   2
  0.7204106409   4   2   3   1
  0.0221494015   4   2   3   3
  0.8837006131   4   2   4   2
  1.1006871003   4   3   2   1
  -1.0511511668   4   3   3   2
  0.0549339176   4   3   4   1
  1.2764723703   4   3   4   3
  4.2080990531   4   4   1   1
  4.0551344706   4   4   2   2
  0.1518961659   4   4   3   1
  4.1155759533   4   4   3   3
  0.0862132574   4   4   4   2
  4.1639461263   4   4   4   4
  0.0185805305   5   1   1   1
  0.3920281238   5   1   2   2
  -0.3700323974   5   1   3   1
  -0.1187085444   5   1   3   3
  0.1438084030   5   1   4   2
  -0.0754248234   5   1   4   4
  0.4967854936   5   1   5   1
  0.5636295810   5   2   2   1
  -0.1051475405   5   2   3   2
  0.4547338784   5   2   4   1
  -0.1651723520   5   2   4   3
  0.7107019759   5   2   5   2
  -0.9405125235   5   3   1   1
  -0.2550537592   5   3   2   2
  -0.6809016240   5   3   3   1
  -0.1289403732   5   3   3   3
  -0.7957646235   5   3   4   2
  -0.0336556866   5   3   4   4
  -0.1111892475   5   3   5   1
  0.8607533432   5   3   5   3
  1.0525223292   5   4   2   1
  -1.1830534297   5   4   3   2
  -0.1245306735   5   4   4   1
  1.0891285998   5   4   4   3
  -0.0166284205   5   4   5   2
  1.2118910314   5   4   5   4
  4.1132934452   5   5   1   1
  4.2420209873   5   5   2   2
  -0.1283948281   5   5   3   1
  4.0632842034   5   5   3   3
  0.0516169431   5   5   4   2
  4.0235596823   5   5   4   4
  0.1813342312   5   5   5   1
  -0.0893612000   5   5   5   3
  4.1679622306   5   5   5   5
  -0.0011772955   6   1   2   1
  -0.2744024020   6   1   3   2
  -0.2689680730   6   1   4   1
  -0.2275920704   6   1   4   3
  0.2460750106   6   1   5   2
  0.1129095619   6   1   5   4
  0.5017780424   6   1   6   1
  0.0133747733   6   2   1   1
  0.3990200258   6   2   2   2
  -0.3824023784   6   2   3   1
  -0.0380990095   6   2   3   3
  0.0617469876   6   2   4   2
  -0.1216673916   6   2   4   4
  0.4422014789   6   2   5   1
  -0.1501349039   6   2   5   3
  0.2043684467   6   2   5   5
  0.4877605230   6   2   6   2
  -0.5763945348   6   3   2   1
  -0.0409860356   6   3   3   2
  -0.6130472081   6   3   4   1
  -0.0451793212   6   3   4   3
  -0.5054712235   6   3   5   2
  0.1219698928   6   3   5   4
  0.1257651760   6   3   6   1
  0.6312690605   6   3   6   3
  -0.9473946937   6   4   1   1
  -0.0263797929   6   4   2   2
  -0.9154108110   6   4   3   1
  -0.1661771972   6   4   3   3
  -0.7592581165   6   4   4   2
  -0.1591363358   6   4   4   4
  0.1686848209   6   4   5   1
  0.7363251820   6   4   5   3
  0.0688668597   6   4   5   5
  0.1942064196   6   4   6   2
  0.9032668965   6   4   6   4
  1.4531517873   6   5   2   1
  -1.1770878271   6   5   3   2
  0.2826698372   6   5   4   1
  1.1421189559   6   5   4   3
  0.3215489992   6   5   5   2
  1.1268712987   6   5   5   4
  0.0229477893   6   5   6   1
  -0.3308969360   6   5   6   3
  1.4025132215   6   5   6   5
  4.8262894654   6   6   1   1
  4.2546265328   6   6   2   2
  0.5685294087   6   6   3   1
  4.1858934733   6   6   3   3
  0.6271639150   6   6   4   2
  4.1408716813   6   6   4   4
  0.0479988048   6   6   5   1
  -0.6498800380   6   6   5   3
  4.0938128929   6   6   5   5
  0.0495373144   6   6   6   2
  -0.6398166052   6   6   6   4
  4.5936106260   6   6   6   6
  -0.0006037771   7   1   1   1
  -0.0316764674   7   1   2   2
  0.0303955685   7   1   3   1
  0.1716487283   7   1   3   3
  -0.1661294495   7   1   4   2
  -0.0697964089   7   1   4   4
  -0.1672267773   7   1   5   1
  -0.0630257331   7   1   5   3
  0.0167400904   7   1   5   5
  0.0245367291   7   1   6   2
  0.0127182544   7   1   6   4
  0.0060033058   7   1   6   6
  0.3764867324   7   1   7   1
  -0.0442732310   7   2   2   1
  -0.2300302166   7   2   3   2
  -0.2623164763   7   2   4   1
  -0.0097347116   7   2   4   3
  -0.0101036327   7   2   5   2
  0.0053602776   7   2   5   4
  0.2103837398   7   2   6   1
  0.0511682090   7   2   6   3
  0.0171542888   7   2   6   5
  0.3341622995   7   2   7   2
  0.0533668358   7   3   1   1
  -0.3283289056   7   3   2   2
  0.3766973590   7   3   3   1
  0.0003700623   7   3   3   3
  0.0426090808   7   3   4   2
  -0.0071684821   7   3   4   4
  -0.3130976614   7   3   5   1
  -0.0371006846   7   3   5   3
  -0.0865064511   7   3   5   5
  -0.2787094338   7   3   6   2
  -0.1315685515   7   3   6   4
  -0.0149787670   7   3   6   6
  0.0942886034   7   3   7   1
  0.3861739313   7   3   7   3
  -0.5129900083   7   4   2   1
  0.0623233563   7   4   3   2
  -0.4403747219   7   4   4   1
  -0.0882138042   7   4   4   3
  -0.3902114196   7   4   5   2
  -0.0443924157   7   4   5   4
  0.0454468151   7   4   6   1
  0.3908777522   7   4   6   3
  -0.2407364587   7   4   6   5
  0.1228504156   7   4   7   2
  0.4550842937   7   4   7   4
  -0.6654176086   7   5   1   1
  -0.0725119164   7   5   2   2
  -0.5867749986   7   5   3   1
  -0.1259364872   7   5   3   3
  -0.5191290751   7   5   4   2
  -0.1188406841   7   5   4   4
  0.0691815668   7   5   5   1
  0.4983451742   7   5   5   3
  -0.0371547641   7   5   5   5
  0.0799950437   7   5   6   2
  0.5265429479   7   5   6   4
  -0.3911006926   7   5   6   6
  0.0091389593   7   5   7   1
  -0.1561214719   7   5   7   3
  0.5043270306   7   5   7   5
  0.7024409032   7   6   2   1
  -0.6039499994   7   6   3   2
  0.0995874162   7   6   4   1
  0.5819429371   7   6   4   3
  0.1198164191   7   6   5   2
  0.5719707730   7   6   5   4
  0.0144750256   7   6   6   1
  -0.1182111821   7   6   6   3
  0.6401248619   7   6   6   5
  0.0124685759   7   6   7   2
  -0.1789538773   7   6   7   4
  0.5535673425   7   6   7   6
  4.8262894654   7   7   1   1
  4.2546265328   7   7   2   2
  0.5685294087   7   7   3   1
  4.1858934733   7   7   3   3
  0.6271639150   7   7   4   2
  4.1408716813   7   7   4   4
  0.0479988048   7   7   5   1
  -0.6498800380   7   7   5   3
  4.0938128929   7   7   5   5
  0.0495373144   7   7   6   2
  -0.6398166052   7   7   6   4
  4.5936106260   7   7   6   6
  0.0060033058   7   7   7   1
  -0.0149787670   7   7   7   3
  -0.3911006926   7   7   7   5
  4.5936106260   7   7   7   7
  -0.0207602333   8   1   2   1
  -0.0722331924   8   1   3   2
  -0.0854976517   8   1   4   1
  0.1042357584   8   1   4   3
  -0.1133966270   8   1   5   2
  -0.0562390930   8   1   5   4
  -0.0601798358   8   1   6   1
  -0.0372334853   8   1   6   3
  0.0141650051   8   1   6   5
  0.1995923241   8   1   7   2
  0.0751734276   8   1   7   4
  0.0082051923   8   1   7   6
  0.2134542505   8   1   8   1
  -0.0250766355   8   2   1   1
  0.0966213584   8   2   2   2
  -0.1193332088   8   2   3   1
  0.1798560311   8   2   3   3
  -0.1950591314   8   2   4   2
  0.0031755760   8   2   4   4
  -0.0678952115   8   2   5   1
  0.0207110092   8   2   5   3
  0.0012680520   8   2   5   5
  0.0544398296   8   2   6   2
  0.0167478093   8   2   6   4
  0.0177681978   8   2   6   6
  0.2458776995   8   2   7   1
  -0.1418827688   8   2   7   3
  0.0993922694   8   2   7   5
  0.0177681978   8   2   7   7
  0.3318359145   8   2   8   2
  -0.1635345038   8   3   2   1
  0.2752517127   8   3   3   2
  0.1083035509   8   3   4   1
  -0.0244151414   8   3   4   3
  -0.1408408017   8   3   5   2
  -0.0802003016   8   3   5   4
  -0.2224057738   8   3   6   1
  0.0372602835   8   3   6   3
  -0.0721956334   8   3   6   5
  -0.2236878662   8   3   7   2
  0.1390050890   8   3   7   4
  -0.1165683479   8   3   7   6
  -0.0968302289   8   3   8   1
  0.3283978840   8   3   8   3
  -0.2189490441   8   4   1   1
  -0.3798281876   8   4   2   2
  0.1597785478   8   4   3   1
  -0.0557220655   8   4   3   3
  -0.1623930348   8   4   4   2
  -0.0545902365   8   4   4   4
  -0.3059782935   8   4   5   1
  0.1608084282   8   4   5   3
  -0.1500548389   8   4   5   5
  -0.2758884200   8   4   6   2
  0.0231491163   8   4   6   4
  -0.1412259005   8   4   6   6
  0.0891728402   8   4   7   1
  0.2725863066   8   4   7   3
  0.1290191644   8   4   7   5
  -0.1412259005   8   4   7   7
  -0.0480778391   8   4   8   2
  0.3787784687   8   4   8   4
  -0.2259269165   8   5   2   1
  -0.1992205167   8   5   3   2
  -0.4160933710   8   5   4   1
  0.1628004359   8   5   4   3
  -0.3589647978   8   5   5   2
  0.2020950332   8   5   5   4
  0.0521008361   8   5   6   1
  0.3657159930   8   5   6   3
  -0.0077152886   8   5   6   5
  0.1243568556   8   5   7   2
  0.3351125128   8   5   7   4
  0.1922662963   8   5   7   6
  0.0745259842   8   5   8   1
  0.0400375465   8   5   8   3
  0.5225991557   8   5   8   5
  -0.6654176086   8   6   1   1
  -0.0725119164   8   6   2   2
  -0.5867749986   8   6   3   1
  -0.1259364872   8   6   3   3
  -0.5191290751   8   6   4   2
  -0.1188406841   8   6   4   4
  0.0691815668   8   6   5   1
  0.4983451742   8   6   5   3
  -0.0371547641   8   6   5   5
  0.0799950437   8   6   6   2
  0.5265429479   8   6   6   4
  -0.3911006926   8   6   6   6
  0.0091389593   8   6   7   1
  -0.1561214719   8   6   7   3
  0.5043270306   8   6   7   5
  -0.3911006926   8   6   7   7
  0.0993922694   8   6   8   2
  0.1290191644   8   6   8   4
  0.5043270306   8   6   8   6
  1.4531517873   8   7   2   1
  -1.1770878271   8   7   3   2
  0.2826698372   8   7   4   1
  1.1421189559   8   7   4   3
  0.3215489992   8   7   5   2
  1.1268712987   8   7   5   4
  0.0229477893   8   7   6   1
  -0.3308969360   8   7   6   3
  1.4025132215   8   7   6   5
  0.0171542888   8   7   7   2
  -0.2407364587   8   7   7   4
  0.6401248619   8   7   7   6
  0.0141650051   8   7   8   1
  -0.0721956334   8   7   8   3
  -0.0077152886   8   7   8   5
  1.4025132215   8   7   8   7
  4.1132934452   8   8   1   1
  4.2420209873   8   8   2   2
  -0.1283948281   8   8   3   1
  4.0632842034   8   8   3   3
  0.0516169431   8   8   4   2
  4.0235596823   8   8   4   4
  0.1813342312   8   8   5   1
  -0.0893612000   8   8   5   3
  4.1679622306   8   8   5   5
  0.2043684467   8   8   6   2
  0.0688668597   8   8   6   4
  4.0938128929   8   8   6   6
  0.0167400904   8   8   7   1
  -0.0865064511   8   8   7   3
  -0.0371547641   8   8   7   5
  4.0938128929   8   8   7   7
  0.0012680520   8   8   8   2
  -0.1500548389   8   8   8   4
  -0.0371547641   8   8   8   6
  4.1679622306   8   8   8   8
  -0.0126754110   9   1   1   1
  0.0575855194   9   1   2   2
  -0.0679759403   9   1   3   1
  0.0198437325   9   1   3   3
  -0.0307902126   9   1   4   2
  0.0902983261   9   1   4   4
  0.0174278991   9   1   5   1
  0.0931862149   9   1   5   3
  -0.0484205112   9   1   5   5
  -0.0527526600   9   1   6   2
  -0.0395221324   9   1   6   4
  0.0118905569   9   1   6   6
  -0.1213044452   9   1   7   1
  -0.1765578151   9   1   7   3
  0.0659598688   9   1   7   5
  0.0118905569   9   1   7   7
  0.0779159654   9   1   8   2
  -0.0850873645   9   1   8   4
  0.0659598688   9   1   8   6
  -0.0484205112   9   1   8   8
  0.1968501238   9   1   9   1
  0.0852102524   9   2   2   1
  -0.0711386561   9   2   3   2
  0.0127443806   9   2   4   1
  0.1507912043   9   2   4   3
  -0.0753607308   9   2   5   2
  0.0091766936   9   2   5   4
  -0.1004403004   9   2   6   1
  -0.0459917008   9   2   6   3
  0.0041003390   9   2   6   5
  0.0657197857   9   2   7   2
  -0.1276308359   9   2   7   4
  0.0840131115   9   2   7   6
  0.1123835020   9   2   8   1
  -0.1582593001   9   2   8   3
  -0.0406877751   9   2   8   5
  0.0041003390   9   2   8   7
  0.2068007326   9   2   9   2
  -0.1116752443   9   3   1   1
  -0.0970867127   9   3   2   2
  -0.0135099173   9   3   3   1
  -0.2102638320   9   3   3   3
  0.0981469007   9   3   4   2
  -0.0429574806   9   3   4   4
  0.0978961105   9   3   5   1
  0.0552062909   9   3   5   3
  -0.0491576255   9   3   5   5
  -0.0213366966   9   3   6   2
  0.0347307808   9   3   6   4
  -0.0485311161   9   3   6   6
  -0.2387398003   9   3   7   1
  0.0165013950   9   3   7   3
  0.1187597352   9   3   7   5
  -0.0485311161   9   3   7   7
  -0.2261851429   9   3   8   2
  0.1181966838   9   3   8   4
  0.1187597352   9   3   8   6
  -0.0491576255   9   3   8   8
  0.0098839380   9   3   9   1
  0.3101373281   9   3   9   3
  0.0025091037   9   4   2   1
  0.1519066996   9   4   3   2
  0.1487007099   9   4   4   1
  0.0985207405   9   4   4   3
  -0.1058718057   9   4   5   2
  0.0244420184   9   4   5   4
  -0.2283005118   9   4   6   1
  -0.0020843290   9   4   6   3
  0.0244212513   9   4   6   5
  -0.2248194931   9   4   7   2
  0.0135000265   9   4   7   4
  0.1909612914   9   4   7   6
  -0.0929900196   9   4   8   1
  0.2304395799   9   4   8   3
  0.1981653237   9   4   8   5
  0.0244212513   9   4   8   7
  -0.0644450669   9   4   9   2
  0.4095212497   9   4   9   4
  -0.2189490441   9   5   1   1
  -0.3798281876   9   5   2   2
  0.1597785478   9   5   3   1
  -0.0557220655   9   5   3   3
  -0.1623930348   9   5   4   2
  -0.0545902365   9   5   4   4
  -0.3059782935   9   5   5   1
  0.1608084282   9   5   5   3
  -0.1500548389   9   5   5   5
  -0.2758884200   9   5   6   2
  0.0231491163   9   5   6   4
  -0.1412259005   9   5   6   6
  0.0891728402   9   5   7   1
  0.2725863066   9   5   7   3
  0.1290191644   9   5   7   5
  -0.1412259005   9   5   7   7
  -0.0480778391   9   5   8   2
  0.3787784687   9   5   8   4
  0.1290191644   9   5   8   6
  -0.1500548389   9   5   8   8
  -0.0850873645   9   5   9   1
  0.1181966838   9   5   9   3
  0.3787784687   9   5   9   5
  -0.5129900083   9   6   2   1
  0.0623233563   9   6   3   2
  -0.4403747219   9   6   4   1
  -0.0882138042   9   6   4   3
  -0.3902114196   9   6   5   2
  -0.0443924157   9   6   5   4
  0.0454468151   9   6   6   1
  0.3908777522   9   6   6   3
  -0.2407364587   9   6   6   5
  0.1228504156   9   6   7   2
  0.4550842937   9   6   7   4
  -0.1789538773   9   6   7   6
  0.0751734276   9   6   8   1
  0.1390050890   9   6   8   3
  0.3351125128   9   6   8   5
  -0.2407364587   9   6   8   7
  -0.1276308359   9   6   9   2
  0.0135000265   9   6   9   4
  0.4550842937   9   6   9   6
  -0.9473946937   9   7   1   1
  -0.0263797929   9   7   2   2
  -0.9154108110   9   7   3   1
  -0.1661771972   9   7   3   3
  -0.7592581165   9   7   4   2
  -0.1591363358   9   7   4   4
  0.1686848209   9   7   5   1
  0.7363251820   9   7   5   3
  0.0688668597   9   7   5   5
  0.1942064196   9   7   6   2
  0.9032668965   9   7   6   4
  -0.6398166052   9   7   6   6
  0.0127182544   9   7   7   1
  -0.1315685515   9   7   7   3
  0.5265429479   9   7   7   5
  -0.6398166052   9   7   7   7
  0.0167478093   9   7   8   2
  0.0231491163   9   7   8   4
  0.5265429479   9   7   8   6
  0.0688668597   9   7   8   8
  -0.0395221324   9   7   9   1
  0.0347307808   9   7   9   3
  0.0231491163   9   7   9   5
  0.9032668965   9   7   9   7
  1.0525223292   9   8   2   1
  -1.1830534297   9   8   3   2
  -0.1245306735   9   8   4   1
  1.0891285998   9   8   4   3
  -0.0166284205   9   8   5   2
  1.2118910314   9   8   5   4
  0.1129095619   9   8   6   1
  0.1219698928   9   8   6   3
  1.1268712987   9   8   6   5
  0.0053602776   9   8   7   2
  -0.0443924157   9   8   7   4
  0.5719707730   9   8   7   6
  -0.0562390930   9   8   8   1
  -0.0802003016   9   8   8   3
  0.2020950332   9   8   8   5
  1.1268712987   9   8   8   7
  0.0091766936   9   8   9   2
  0.0244420184   9   8   9   4
  -0.0443924157   9   8   9   6
  1.2118910314   9   8   9   8
  4.2080990531   9   9   1   1
  4.0551344706   9   9   2   2
  0.1518961659   9   9   3   1
  4.1155759533   9   9   3   3
  0.0862132574   9   9   4   2
  4.1639461263   9   9   4   4
  -0.0754248234   9   9   5   1
  -0.0336556866   9   9   5   3
  4.0235596823   9   9   5   5
  -0.1216673916   9   9   6   2
  -0.1591363358   9   9   6   4
  4.1408716813   9   9   6   6
  -0.0697964089   9   9   7   1
  -0.0071684821   9   9   7   3
  -0.1188406841   9   9   7   5
  4.1408716813   9   9   7   7
  0.0031755760   9   9   8   2
  -0.0545902365   9   9   8   4
  -0.1188406841   9   9   8   6
  4.0235596823   9   9   8   8
  0.0902983261   9   9   9   1
  -0.0429574806   9   9   9   3
  -0.0545902365   9   9   9   5
  -0.1591363358   9   9   9   7
  4.1639461263   9   9   9   9
  -0.0572008874   10   1   2   1
  0.0179519140   10   1   3   2
  -0.0314942772   10   1   4   1
  -0.0247539929   10   1   4   3
  -0.0148844163   10   1   5   2
  -0.0754634254   10   1   5   4
  -0.0027381365   10   1   6   1
  -0.0453977823   10   1   6   3
  0.0364210363   10   1   6   5
  0.1092252067   10   1   7   2
  0.1653240899   10   1   7   4
  -0.0647187101   10   1   7   6
  0.1016943111   10   1   8   1
  0.0743306676   10   1   8   3
  0.0817430952   10   1   8   5
  0.0364210363   10   1   8   7
  -0.0843821972   10   1   9   2
  -0.0102735190   10   1   9   4
  0.1653240899   10   1   9   6
  -0.0754634254   10   1   9   8
  0.1837460581   10   1   10   1
  -0.0645606798   10   2   1   1
  -0.0562411962   10   2   2   2
  -0.0075318149   10   2   3   1
  -0.0424997455   10   2   3   3
  -0.0159342082   10   2   4   2
  -0.1180875987   10   2   4   4
  0.0041577336   10   2   5   1
  -0.0614714490   10   2   5   3
  -0.0038330090   10   2   5   5
  0.0722021295   10   2   6   2
  0.0345640469   10   2   6   4
  -0.0033572033   10   2   6   6
  0.1205917452   10   2   7   1
  0.0589038615   10   2   7   3
  0.1172054263   10   2   7   5
  -0.0033572033   10   2   7   7
  0.0213775247   10   2   8   2
  0.1513877982   10   2   8   4
  0.1172054263   10   2   8   6
  -0.0038330090   10   2   8   8
  -0.1048051331   10   2   9   1
  0.0749830157   10   2   9   3
  0.1513877982   10   2   9   5
  0.0345640469   10   2   9   7
  -0.1180875987   10   2   9   9
  0.1951640212   10   2   10   2
  -0.0057045148   10   3   2   1
  0.0017097511   10   3   3   2
  -0.0028945933   10   3   4   1
  0.0935306443   10   3   4   3
  -0.1010037423   10   3   5   2
  -0.0423634162   10   3   5   4
  -0.1104213391   10   3   6   1
  -0.0292520106   10   3   6   3
  -0.0210064374   10   3   6   5
  0.0607431790   10   3   7   2
  -0.0162370867   10   3   7   4
  -0.1913977955   10   3   7   6
  0.1115063758   10   3   8   1
  -0.0562089246   10   3   8   3
  -0.2015457166   10   3   8   5
  -0.0210064374   10   3   8   7
  0.1162139323   10   3   9   2
  -0.2345562085   10   3   9   4
  -0.0162370867   10   3   9   6
  -0.0423634162   10   3   9   8
  0.0028525768   10   3   10   1
  0.2971409236   10   3   10   3
  0.1116752443   10   4   1   1
  0.0970867127   10   4   2   2
  0.0135099173   10   4   3   1
  0.2102638320   10   4   3   3
  -0.0981469007   10   4   4   2
  0.0429574806   10   4   4   4
  -0.0978961105   10   4   5   1
  -0.0552062909   10   4   5   3
  0.0491576255   10   4   5   5
  0.0213366966   10   4   6   2
  -0.0347307808   10   4   6   4
  0.0485311161   10   4   6   6
  0.2387398003   10   4   7   1
  -0.0165013950   10   4   7   3
  -0.1187597352   10   4   7   5
  0.0485311161   10   4   7   7
  0.2261851429   10   4   8   2
  -0.1181966838   10   4   8   4
  -0.1187597352   10   4   8   6
  0.0491576255   10   4   8   8
  -0.0098839380   10   4   9   1
  -0.3101373281   10   4   9   3
  -0.1181966838   10   4   9   5
  -0.0347307808   10   4   9   7
  0.0429574806   10   4   9   9
  -0.0749830157   10   4   10   2
  0.3101373281   10   4   10   4
  0.1635345038   10   5   2   1
  -0.2752517127   10   5   3   2
  -0.1083035509   10   5   4   1
  0.0244151414   10   5   4   3
  0.1408408017   10   5   5   2
  0.0802003016   10   5   5   4
  0.2224057738   10   5   6   1
  -0.0372602835   10   5   6   3
  0.0721956334   10   5   6   5
  0.2236878662   10   5   7   2
  -0.1390050890   10   5   7   4
  0.1165683479   10   5   7   6
  0.0968302289   10   5   8   1
  -0.3283978840   10   5   8   3
  -0.0400375465   10   5   8   5
  0.0721956334   10   5   8   7
  0.1582593001   10   5   9   2
  -0.2304395799   10   5   9   4
  -0.1390050890   10   5   9   6
  0.0802003016   10   5   9   8
  -0.0743306676   10   5   10   1
  0.0562089246   10   5   10   3
  0.3283978840   10   5   10   5
  -0.0533668358   10   6   1   1
  0.3283289056   10   6   2   2
  -0.3766973590   10   6   3   1
  -0.0003700623   10   6   3   3
  -0.0426090808   10   6   4   2
  0.0071684821   10   6   4   4
  0.3130976614   10   6   5   1
  0.0371006846   10   6   5   3
  0.0865064511   10   6   5   5
  0.2787094338   10   6   6   2
  0.1315685515   10   6   6   4
  0.0149787670   10   6   6   6
  -0.0942886034   10   6   7   1
  -0.3861739313   10   6   7   3
  0.1561214719   10   6   7   5
  0.0149787670   10   6   7   7
  0.1418827688   10   6   8   2
  -0.2725863066   10   6   8   4
  0.1561214719   10   6   8   6
  0.0865064511   10   6   8   8
  0.1765578151   10   6   9   1
  -0.0165013950   10   6   9   3
  -0.2725863066   10   6   9   5
  0.1315685515   10   6   9   7
  0.0071684821   10   6   9   9
  -0.0589038615   10   6   10   2
  0.0165013950   10   6   10   4
  0.3861739313   10   6   10   6
  0.5763945348   10   7   2   1
  0.0409860356   10   7   3   2
  0.6130472081   10   7   4   1
  0.0451793212   10   7   4   3
  0.5054712235   10   7   5   2
  -0.1219698928   10   7   5   4
  -0.1257651760   10   7   6   1
  -0.6312690605   10   7   6   3
  0.3308969360   10   7   6   5
  -0.0511682090   10   7   7   2
  -0.3908777522   10   7   7   4
  0.1182111821   10   7   7   6
  0.0372334853   10   7   8   1
  -0.0372602835   10   7   8   3
  -0.3657159930   10   7   8   5
  0.3308969360   10   7   8   7
  0.0459917008   10   7   9   2
  0.0020843290   10   7   9   4
  -0.3908777522   10   7   9   6
  -0.1219698928   10   7   9   8
  0.0453977823   10   7   10   1
  0.0292520106   10   7   10   3
  0.0372602835   10   7   10   5
  0.6312690605   10   7   10   7
  0.9405125235   10   8   1   1
  0.2550537592   10   8   2   2
  0.6809016240   10   8   3   1
  0.1289403732   10   8   3   3
  0.7957646235   10   8   4   2
  0.0336556866   10   8   4   4
  0.1111892475   10   8   5   1
  -0.8607533432   10   8   5   3
  0.0893612000   10   8   5   5
  0.1501349039   10   8   6   2
  -0.7363251820   10   8   6   4
  0.6498800380   10   8   6   6
  0.0630257331   10   8   7   1
  0.0371006846   10   8   7   3
  -0.4983451742   10   8   7   5
  0.6498800380   10   8   7   7
  -0.0207110092   10   8   8   2
  -0.1608084282   10   8   8   4
  -0.4983451742   10   8   8   6
  0.0893612000   10   8   8   8
  -0.0931862149   10   8   9   1
  -0.0552062909   10   8   9   3
  -0.1608084282   10   8   9   5
  -0.7363251820   10   8   9   7
  0.0336556866   10   8   9   9
  0.0614714490   10   8   10   2
  0.0552062909   10   8   10   4
  -0.0371006846   10   8   10   6
  0.8607533432   10   8   10   8
  -1.1006871003   10   9   2   1
  1.0511511668   10   9   3   2
  -0.0549339176   10   9   4   1
  -1.2764723703   10   9   4   3
  0.1651723520   10   9   5   2
  -1.0891285998   10   9   5   4
  0.2275920704   10   9   6   1
  0.0451793212   10   9   6   3
  -1.1421189559   10   9   6   5
  0.0097347116   10   9   7   2
  0.0882138042   10   9   7   4
  -0.5819429371   10   9   7   6
  -0.1042357584   10   9   8   1
  0.0244151414   10   9   8   3
  -0.1628004359   10   9   8   5
  -1.1421189559   10   9   8   7
  -0.1507912043   10   9   9   2
  -0.0985207405   10   9   9   4
  0.0882138042   10   9   9   6
  -1.0891285998   10   9   9   8
  0.0247539929   10   9   10   1
  -0.0935306443   10   9   10   3
  -0.0244151414   10   9   10   5
  -0.0451793212   10   9   10   7
  1.2764723703   10   9   10   9
  4.2588214352   10   10   1   1
  4.1098360564   10   10   2   2
  0.1478580948   10   10   3   1
  4.2349618653   10   10   3   3
  0.0221494015   10   10   4   2
  4.1155759533   10   10   4   4
  -0.1187085444   10   10   5   1
  -0.1289403732   10   10   5   3
  4.0632842034   10   10   5   5
  -0.0380990095   10   10   6   2
  -0.1661771972   10   10   6   4
  4.1858934733   10   10   6   6
  0.1716487283   10   10   7   1
  0.0003700623   10   10   7   3
  -0.1259364872   10   10   7   5
  4.1858934733   10   10   7   7
  0.1798560311   10   10   8   2
  -0.0557220655   10   10   8   4
  -0.1259364872   10   10   8   6
  4.0632842034   10   10   8   8
  0.0198437325   10   10   9   1
  -0.2102638320   10   10   9   3
  -0.0557220655   10   10   9   5
  -0.1661771972   10   10   9   7
  4.1155759533   10   10   9   9
  -0.0424997455   10   10   10   2
  0.2102638320   10   10   10   4
  -0.0003700623   10   10   10   6
  0.1289403732   10   10   10   8
  4.2349618653   10   10   10   10
  0.0480593789   11   1   1   1
  0.0105220724   11   1   2   2
  0.0347759498   11   1   3   1
  0.0167371922   11   1   3   3
  0.0245369270   11   1   4   2
  0.0196060167   11   1   4   4
  -0.0028810654   11   1   5   1
  -0.0129718602   11   1   5   3
  0.0598615156   11   1   5   5
  0.0011992382   11   1   6   2
  0.0381283926   11   1   6   4
  -0.0263542862   11   1   6   6
  0.0015600396   11   1   7   1
  0.1029169159   11   1   7   3
  -0.1627018072   11   1   7   5
  -0.0263542862   11   1   7   7
  -0.0952493183   11   1   8   2
  -0.0740935219   11   1   8   4
  -0.1627018072   11   1   8   6
  0.0598615156   11   1   8   8
  -0.0927751321   11   1   9   1
  -0.0841923887   11   1   9   3
  -0.0740935219   11   1   9   5
  0.0381283926   11   1   9   7
  0.0196060167   11   1   9   9
  -0.0870434856   11   1   10   2
  0.0841923887   11   1   10   4
  -0.1029169159   11   1   10   6
  0.0129718602   11   1   10   8
  0.0167371922   11   1   10   10
  0.1788938667   11   1   11   1
  0.0009105193   11   2   2   1
  0.0207232159   11   2   3   2
  0.0166760388   11   2   4   1
  -0.0095678608   11   2   4   3
  0.0017015976   11   2   5   2
  0.0522465583   11   2   5   4
  0.0034222585   11   2   6   1
  0.0559657175   11   2   6   3
  -0.0273388793   11   2   6   5
  -0.1075490000   11   2   7   2
  -0.0580696765   11   2   7   4
  -0.1952172010   11   2   7   6
  -0.1015918670   11   2   8   1
  0.0206532052   11   2   8   3
  -0.2412675710   11   2   8   5
  -0.0273388793   11   2   8   7
  -0.0075414476   11   2   9   2
  -0.1648787353   11   2   9   4
  -0.0580696765   11   2   9   6
  0.0522465583   11   2   9   8
  -0.0944363914   11   2   10   1
  0.1761161308   11   2   10   3
  -0.0206532052   11   2   10   5
  -0.0559657175   11   2   10   7
  0.0095678608   11   2   10   9
  0.2764528097   11   2   11   2
  -0.0645606798   11   3   1   1
  -0.0562411962   11   3   2   2
  -0.0075318149   11   3   3   1
  -0.0424997455   11   3   3   3
  -0.0159342082   11   3   4   2
  -0.1180875987   11   3   4   4
  0.0041577336   11   3   5   1
  -0.0614714490   11   3   5   3
  -0.0038330090   11   3   5   5
  0.0722021295   11   3   6   2
  0.0345640469   11   3   6   4
  -0.0033572033   11   3   6   6
  0.1205917452   11   3   7   1
  0.0589038615   11   3   7   3
  0.1172054263   11   3   7   5
  -0.0033572033   11   3   7   7
  0.0213775247   11   3   8   2
  0.1513877982   11   3   8   4
  0.1172054263   11   3   8   6
  -0.0038330090   11   3   8   8
  -0.1048051331   11   3   9   1
  0.0749830157   11   3   9   3
  0.1513877982   11   3   9   5
  0.0345640469   11   3   9   7
  -0.1180875987   11   3   9   9
  0.1951640212   11   3   10   2
  -0.0749830157   11   3   10   4
  -0.0589038615   11   3   10   6