 &FCI NORB= 18,NELEC= ,MS0= ,
  ORBSYM=1,2,1,3,2,4,1,3,4,2,1,3,2,4,1,3,4,3,
  ISYM=1,
 /
  -31.6954121576665457382659952   1   1   0   0
  -29.3779836528367823689222860   2   2   0   0
  -1.7110210202370890186784891   3   1   0   0
  -27.8132748459617715752756339   3   3   0   0
  -28.8856019207010064064888866   4   4   0   0
  -2.3523777067973812293644187   5   2   0   0
  -25.7847969866271746752772742   5   5   0   0
  -26.6288875092982273429242923   6   6   0   0
  -0.4767334529589136726812626   7   1   0   0
  2.6207844897393952621200697   7   3   0   0
  -26.9162367856295929868792882   7   7   0   0
  1.5462678835941345845128581   8   4   0   0
  -25.2876840462178833490725083   8   8   0   0
  1.7131817247274141458035501   9   6   0   0
  -24.9589662079126988203370274   9   9   0   0
  0.2087854190827177491840416   10   2   0   0
  -0.9905186471134935777271835   10   5   0   0
  -23.5431919219711360824476287   10   10   0   0
  0.0981480640671884563275285   11   1   0   0
  0.1516826134980983065148052   11   3   0   0
  -1.6194083690814280451775176   11   7   0   0
  -21.5587527107195597864119918   11   11   0   0
  -0.3770081023015213195215267   12   4   0   0
  -1.7774219636627801577333230   12   8   0   0
  -22.1151017621641123866993439   12   12   0   0
  -0.6270099319336418508541442   13   2   0   0
  -0.8975029081036453026953836   13   5   0   0
  1.6844871146489115432132166   13   10   0   0
  -20.9015852407396884871104703   13   13   0   0
  1.0243719315864856511666403   14   6   0   0
  0.9888539212828999502846727   14   9   0   0
  -19.5684913534765918541324936   14   14   0   0
  -0.8670079495941227509803184   15   1   0   0
  -0.3091455605238842552218159   15   3   0   0
  -0.3271161715983609830082912   15   7   0   0
  1.5377497492857672423127724   15   11   0   0
  -21.8458968227017180652183015   15   15   0   0
  -0.3593860062994801429780978   16   4   0   0
  0.1457668458408823974892243   16   8   0   0
  2.4967659105158555021830580   16   12   0   0
  -19.2853005303335685027832369   16   16   0   0
  0.5902494685318412370733654   17   6   0   0
  -0.1551804189285529433917077   17   9   0   0
  -2.2631121396923692401514927   17   14   0   0
  -18.8512127314872657279920531   17   17   0   0
  -0.8038848373099214406067858   18   4   0   0
  0.0623424194734193970468539   18   8   0   0
  -0.4436586002933304295758887   18   12   0   0
  -1.6769813326000342357247064   18   16   0   0
  -19.8558850632626722187978885   18   18   0   0
  2.1840731157   1   1   1   1
  0.6959060508   2   1   2   1
  1.8197772600   2   2   1   1
  1.9436449664   2   2   2   2
  0.3696149096   3   1   1   1
  -0.1182215465   3   1   2   2
  0.4885957085   3   1   3   1
  -0.4528722587   3   2   2   1
  0.5122514246   3   2   3   2
  1.8033596587   3   3   1   1
  1.6508135511   3   3   2   2
  0.1599620394   3   3   3   1
  1.9161110377   3   3   3   3
  0.5726016831   4   1   4   1
  0.3220791757   4   2   4   2
  0.1667242518   4   3   4   1
  0.2771958496   4   3   4   3
  2.1142711653   4   4   1   1
  1.7620337351   4   4   2   2
  0.3482148326   4   4   3   1
  1.7392633120   4   4   3   3
  2.1352868545   4   4   4   4
  0.2481557029   5   1   2   1
  0.0434531160   5   1   3   2
  0.2869806560   5   1   5   1
  0.3905463552   5   2   1   1
  0.1951819574   5   2   2   2
  0.1965234161   5   2   3   1
  -0.0987413806   5   2   3   3
  0.3558927157   5   2   4   4
  0.4956644666   5   2   5   2
  0.3212525731   5   3   2   1
  -0.4618774743   5   3   3   2
  -0.1500838196   5   3   5   1
  0.6298511868   5   3   5   3
  0.1345379810   5   4   4   2
  0.1940430299   5   4   5   4
  1.6007841524   5   5   1   1
  1.7642242837   5   5   2   2
  -0.1623397090   5   5   3   1
  1.7424271587   5   5   3   3
  1.5623356600   5   5   4   4
  -0.1305819088   5   5   5   2
  1.9615218404   5   5   5   5
  -0.3250634304   6   1   4   2
  -0.1346648523   6   1   5   4
  0.3285480545   6   1   6   1
  -0.3981210042   6   2   4   1
  0.1173466733   6   2   4   3
  0.5159867538   6   2   6   2
  0.1719214219   6   3   4   2
  -0.0848522351   6   3   5   4
  -0.1734894845   6   3   6   1
  0.2769176890   6   3   6   3
  -0.6461980397   6   4   2   1
  0.4216033123   6   4   3   2
  -0.2135489402   6   4   5   1
  -0.3412648418   6   4   5   3
  0.6686641898   6   4   6   4
  -0.1540313695   6   5   4   1
  -0.1217789398   6   5   4   3
  0.0227773657   6   5   6   2
  0.2392339206   6   5   6   5
  1.7679937064   6   6   1   1
  1.8607932817   6   6   2   2
  -0.0917501954   6   6   3   1
  1.6504822807   6   6   3   3
  1.7811103624   6   6   4   4
  0.1241531134   6   6   5   2
  1.6466559632   6   6   5   5
  1.9035928759   6   6   6   6
  0.0096960293   7   1   1   1
  0.2542705341   7   1   2   2
  -0.2457151127   7   1   3   1
  -0.2242205649   7   1   3   3
  0.0072636500   7   1   4   4
  0.2462302637   7   1   5   2
  0.0422086150   7   1   5   5
  0.1664115497   7   1   6   6
  0.4132165883   7   1   7   1
  0.3115549223   7   2   2   1
  -0.0069415297   7   2   3   2
  0.3215916682   7   2   5   1
  -0.2414973925   7   2   5   3
  -0.2307804834   7   2   6   4
  0.4568315826   7   2   7   2
  -0.4787854869   7   3   1   1
  -0.0703367238   7   3   2   2
  -0.4168649459   7   3   3   1
  -0.0854051634   7   3   3   3
  -0.4039087445   7   3   4   4
  -0.4084922925   7   3   5   2
  0.2489803263   7   3   5   5
  -0.0800075204   7   3   6   6
  0.0293031215   7   3   7   1
  0.5898033949   7   3   7   3
  -0.0023847988   7   4   4   1
  -0.1169602206   7   4   4   3
  -0.1101932820   7   4   6   2
  -0.1132089566   7   4   6   5
  0.1976924194   7   4   7   4
  0.6335927849   7   5   2   1
  -0.5986760012   7   5   3   2
  0.0511562602   7   5   5   1
  0.5961437308   7   5   5   3
  -0.5309783841   7   5   6   4
  0.0721725464   7   5   7   2
  0.8784187679   7   5   7   5
  -0.1210509361   7   6   4   2
  -0.1328563437   7   6   5   4
  0.1177324443   7   6   6   1
  0.0043656003   7   6   6   3
  0.1819243873   7   6   7   6
  1.9401205452   7   7   1   1
  1.8484153090   7   7   2   2
  0.1048642841   7   7   3   1
  1.8428728233   7   7   3   3
  1.7886181221   7   7   4   4
  0.1390260785   7   7   5   2
  1.8411123548   7   7   5   5
  1.6837692574   7   7   6   6
  0.0243757141   7   7   7   1
  -0.1607790217   7   7   7   3
  2.0512028195   7   7   7   7
  -0.1630437888   8   1   4   1
  -0.2776641998   8   1   4   3
  -0.1240368214   8   1   6   2
  0.1345763411   8   1   6   5
  0.1026227932   8   1   7   4
  0.2836235161   8   1   8   1
  0.1778207223   8   2   4   2
  -0.0924374537   8   2   5   4
  -0.1799900667   8   2   6   1
  0.2926001580   8   2   6   3
  0.0021658719   8   2   7   6
  0.3112737602   8   2   8   2
  -0.3808647063   8   3   4   1
  -0.0024821117   8   3   4   3
  0.3830921947   8   3   6   2
  -0.0974613179   8   3   6   5
  0.0952180690   8   3   7   4
  -0.0177912577   8   3   8   1
  0.4646433870   8   3   8   3
  -0.3348986776   8   4   1   1
  0.1011282139   8   4   2   2
  -0.4298056960   8   4   3   1
  -0.0771204460   8   4   3   3
  -0.3527789110   8   4   4   4
  -0.2289294829   8   4   5   2
  0.0823478189   8   4   5   5
  0.1212405994   8   4   6   6
  0.1514049170   8   4   7   1
  0.3081446695   8   4   7   3
  -0.0898494423   8   4   7   7
  0.4727872354   8   4   8   4
  -0.1474317427   8   5   4   2
  0.0304352623   8   5   5   4
  0.1525926547   8   5   6   1
  -0.1582015063   8   5   6   3
  -0.0912944214   8   5   7   6
  -0.1591153235   8   5   8   2
  0.2281836517   8   5   8   5
  -0.4305496483   8   6   2   1
  0.5375340039   8   6   3   2
  0.0857689067   8   6   5   1
  -0.4010805043   8   6   5   3
  0.4419092948   8   6   6   4
  -0.0187915601   8   6   7   2
  -0.4860532277   8   6   7   5
  0.6861453805   8   6   8   6
  0.1257085099   8   7   4   1
  0.1292318618   8   7   4   3
  0.0004943060   8   7   6   2
  -0.1236693096   8   7   6   5
  -0.0088407360   8   7   7   4
  -0.1155201126   8   7   8   1
  -0.0021508951   8   7   8   3
  0.1587178394   8   7   8   7
  1.7464700230   8   8   1   1
  1.7119205516   8   8   2   2
  0.0352515748   8   8   3   1
  1.7666313453   8   8   3   3
  1.7743127545   8   8   4   4
  -0.0236441907   8   8   5   2
  1.6085751350   8   8   5   5
  1.8220414101   8   8   6   6
  -0.0650060319   8   8   7   1
  -0.0874487899   8   8   7   3
  1.6402480724   8   8   7   7
  0.0496572230   8   8   8   4
  1.8733175843   8   8   8   8
  0.1334604606   9   1   4   2
  0.2236395532   9   1   5   4
  -0.1358747443   9   1   6   1
  -0.1361966566   9   1   6   3
  -0.0912422635   9   1   7   6
  -0.1500781448   9   1   8   2
  -0.0112300434   9   1   8   5
  0.2998614210   9   1   9   1
  0.1535957282   9   2   4   1
  0.1722412951   9   2   4   3
  0.0326992461   9   2   6   2
  -0.2243833569   9   2   6   5
  0.0664881539   9   2   7   4
  -0.1926823994   9   2   8   1
  0.1014047826   9   2   8   3
  0.0935052174   9   2   8   7
  0.2480416850   9   2   9   2
  0.1944581550   9   3   4   2
  0.0090673093   9   3   5   4
  -0.2015431266   9   3   6   1
  0.1606022466   9   3   6   3
  0.0570322838   9   3   7   6
  0.1657147588   9   3   8   2
  -0.2258218817   9   3   8   5
  0.0516127608   9   3   9   1
  0.2448768455   9   3   9   3
  0.1998102409   9   4   2   1
  0.1256992585   9   4   3   2
  0.2873897779   9   4   5   1
  -0.0377663057   9   4   5   3
  -0.2286759428   9   4   6   4
  0.1763836295   9   4   7   2
  0.0309002487   9   4   7   5
  0.2574526640   9   4   8   6
  0.5077935945   9   4   9   4
  0.3405105173   9   5   4   1
  0.0107314621   9   5   4   3
  -0.3204650926   9   5   6   2
  -0.0042957189   9   5   6   5
  0.0055232747   9   5   7   4
  -0.0212387794   9   5   8   1
  -0.3052053406   9   5   8   3
  -0.0529522338   9   5   8   7
  0.0341164883   9   5   9   2
  0.3268964134   9   5   9   5
  -0.3282661993   9   6   1   1
  -0.0171484717   9   6   2   2
  -0.3028578507   9   6   3   1
  0.0425328233   9   6   3   3
  -0.3539414155   9   6   4   4
  -0.3441244068   9   6   5   2
  0.0450570189   9   6   5   5
  0.0522154426   9   6   6   6
  -0.0557994361   9   6   7   1
  0.2678243688   9   6   7   3
  -0.0960968868   9   6   7   7
  0.4104193647   9   6   8   4
  0.0970895409   9   6   8   8
  0.4557071769   9   6   9   6
  0.1061150237   9   7   4   2
  0.0067762953   9   7   5   4
  -0.1038651578   9   7   6   1
  0.1001743803   9   7   6   3
  -0.0096392019   9   7   7   6
  0.0949931558   9   7   8   2
  -0.0936942892   9   7   8   5
  0.0037170445   9   7   9   1
  0.0794519062   9   7   9   3
  0.0958629541   9   7   9   7
  -0.4941785572   9   8   2   1
  0.4045657659   9   8   3   2
  -0.0643313146   9   8   5   1
  -0.4508557974   9   8   5   3
  0.5819745249   9   8   6   4
  -0.0045491250   9   8   7   2
  -0.4558324387   9   8   7   5
  0.4381751837   9   8   8   6
  -0.1684177493   9   8   9   4
  0.6184024894   9   8   9   8
  1.9109746786   9   9   1   1
  1.6956761574   9   9   2   2
  0.2014043987   9   9   3   1
  1.6626826765   9   9   3   3
  2.0256427201   9   9   4   4
  0.2020397215   9   9   5   2
  1.6106855368   9   9   5   5
  1.7661790497   9   9   6   6
  0.0150985180   9   9   7   1
  -0.1616964758   9   9   7   3
  1.6214753332   9   9   7   7
  -0.2707307865   9   9   8   4
  1.7680923132   9   9   8   8
  -0.2908590624   9   9   9   6
  2.0641310670   9   9   9   9
  0.0026334115   10   1   2   1
  0.0996799424   10   1   3   2
  0.0645551268   10   1   5   1
  0.0905765170   10   1   5   3
  -0.0640543866   10   1   6   4
  -0.0877685314   10   1   7   2
  -0.0093882176   10   1   7   5
  0.2082200396   10   1   8   6
  0.3064534031   10   1   9   4
  -0.1282344788   10   1   9   8
  0.2803101902   10   1   10   1
  0.0111549372   10   2   1   1
  -0.1452286262   10   2   2   2
  0.1469483144   10   2   3   1
  0.0390720496   10   2   3   3
  0.0658689726   10   2   4   4
  -0.0605415248   10   2   5   2
  0.0646489356   10   2   5   5
  -0.1586470100   10   2   6   6
  -0.1481819889   10   2   7   1
  0.0670031960   10   2   7   3
  -0.0156439301   10   2   7   7
  -0.2312276738   10   2   8   4
  -0.0816180406   10   2   8   8
  -0.1817858450   10   2   9   6
  0.1294012525   10   2   9   9
  0.2384830075   10   2   10   2
  0.2006092665   10   3   2   1
  -0.0106321306   10   3   3   2
  0.1741054389   10   3   5   1
  -0.0749265632   10   3   5   3
  -0.2648708437   10   3   6   4
  0.1890277708   10   3   7   2
  -0.0448971971   10   3   7   5
  -0.0865007124   10   3   8   6
  0.1839397704   10   3   9   4
  -0.2139885686   10   3   9   8
  0.0487157870   10   3   10   1
  0.2511631387   10   3   10   3
  0.0717506930   10   4   4   2
  0.1747265227   10   4   5   4
  -0.0777279328   10   4   6   1
  -0.1686591776   10   4   6   3
  0.0376465131   10   4   7   6
  -0.1883350770   10   4   8   2
  -0.0950843411   10   4   8   5
  0.3083639933   10   4   9   1
  0.1180025148   10   4   9   3
  -0.0017804710   10   4   9   7
  0.4292816762   10   4   10   4
  0.1946035633   10   5   1   1
  -0.0411627707   10   5   2   2
  0.2264937019   10   5   3   1
  -0.0499057733   10   5   3   3
  0.2890016687   10   5   4   4
  0.2090911009   10   5   5   2
  -0.2174492257   10   5   5   5
  0.0743490976   10   5   6   6
  -0.0151864235   10   5   7   1
  -0.2565751441   10   5   7   3
  -0.1345399253   10   5   7   7
  -0.2203861664   10   5   8   4
  0.0980778693   10   5   8   8
  -0.2105682750   10   5   9   6
  0.2818686382   10   5   9   9
  0.0401252374   10   5   10   2
  0.3100089794   10   5   10   5
  -0.0934017781   10   6   4   1
  -0.2066823458   10   6   4   3
  -0.1314881820   10   6   6   2
  0.0867193718   10   6   6   5
  0.0698245083   10   6   7   4
  0.2352816202   10   6   8   1
  -0.0523191551   10   6   8   3
  0.0200162232   10   6   8   7
  -0.1875063210   10   6   9   2
  -0.0973447865   10   6   9   5
  0.3317131080   10   6   10   6
  -0.3028445533   10   7   2   1
  0.2866059551   10   7   3   2
  -0.0237700780   10   7   5   1
  -0.2865320299   10   7   5   3
  0.2546707576   10   7   6   4
  -0.0329567119   10   7   7   2
  -0.4199149600   10   7   7   5
  0.2329762624   10   7   8   6
  -0.0152643793   10   7   9   4
  0.2197789881   10   7   9   8
  0.0033518100   10   7   10   1
  0.0209534226   10   7   10   3
  0.2007478251   10   7   10   7
  -0.2615498184   10   8   4   2
  -0.1305018921   10   8   5   4
  0.2720710913   10   8   6   1
  -0.1000820537   10   8   6   3
  0.0751276016   10   8   7   6
  -0.1170377883   10   8   8   2
  0.1227284100   10   8   8   5
  -0.1582436117   10   8   9   1
  -0.2034801485   10   8   9   3
  0.0030490019   10   8   9   7
  -0.1417956218   10   8   10   4
  0.3806453092   10   8   10   8
  0.4928029066   10   9   4   1
  0.1756564187   10   9   4   3
  -0.3042240048   10   9   6   2
  -0.1504798789   10   9   6   5
  -0.0037238309   10   9   7   4
  -0.1845082354   10   9   8   1
  -0.2944169268   10   9   8   3
  0.0777916477   10   9   8   7
  0.1806714008   10   9   9   2
  0.3232722919   10   9   9   5
  -0.1765214138   10   9   10   6
  0.7160731188   10   9   10   9
  1.9109746786   10   10   1   1
  1.6956761574   10   10   2   2
  0.2014043987   10   10   3   1
  1.6626826765   10   10   3   3
  2.0256427201   10   10   4   4
  0.2020397215   10   10   5   2
  1.6106855368   10   10   5   5
  1.7661790497   10   10   6   6
  0.0150985180   10   10   7   1
  -0.1616964758   10   10   7   3
  1.6214753332   10   10   7   7
  -0.2707307865   10   10   8   4
  1.7680923132   10   10   8   8
  -0.2908590624   10   10   9   6
  2.0641310670   10   10   9   9
  0.1294012525   10   10   10   2
  0.2818686382   10   10   10   5
  2.0641310670   10   10   10   10
  -0.0211802660   11   1   1   1
  0.0198741346   11   1   2   2
  -0.0515550590   11   1   3   1
  -0.1150263705   11   1   3   3
  0.0359516104   11   1   4   4
  0.0692231379   11   1   5   2
  0.1094200369   11   1   5   5
  -0.0508297953   11   1   6   6
  0.1283469424   11   1   7   1
  0.1305753751   11   1   7   3
  -0.0121919166   11   1   7   7
  -0.0995384948   11   1   8   4
  -0.1277120697   11   1   8   8
  -0.1898700911   11   1   9   6
  0.1215720153   11   1   9   9
  0.1385358425   11   1   10   2
  0.0084116276   11   1   10   5
  0.1215720153   11   1   10   10
  0.2271805201   11   1   11   1
  0.0110481160   11   2   2   1
  0.0623493714   11   2   3   2
  0.0655072928   11   2   5   1
  0.0578338504   11   2   5   3
  0.0488325024   11   2   6   4
  -0.0111665670   11   2   7   2
  0.1280694742   11   2   7   5
  0.2371121099   11   2   8   6
  0.1930414877   11   2   9   4
  0.0697858470   11   2   9   8
  0.1558943862   11   2   10   1
  -0.1057996203   11   2   10   3
  -0.0608804595   11   2   10   7
  0.2491157212   11   2   11   2
  -0.0663486634   11   3   1   1
  0.0697957622   11   3   2   2
  -0.1441624503   11   3   3   1
  -0.1751135689   11   3   3   3
  0.0425474669   11   3   4   4
  0.0877414398   11   3   5   2
  -0.1570926374   11   3   5   5
  0.1998092559   11   3   6   6
  0.1849607700   11   3   7   1
  -0.0021992111   11   3   7   3
  -0.2386604401   11   3   7   7
  0.1457419337   11   3   8   4
  0.1247429275   11   3   8   8
  0.0616662134   11   3   9   6
  0.1259575326   11   3   9   9
  -0.1388814759   11   3   10   2
  0.1750684738   11   3   10   5
  0.1259575326   11   3   10   10
  -0.0134457127   11   3   11   1
  0.3510315846   11   3   11   3
  0.0681560067   11   4   4   1
  0.0996666360   11   4   4   3
  0.0512426540   11   4   6   2
  -0.1344558113   11   4   6   5
  0.0607041991   11   4   7   4
  -0.1364232150   11   4   8   1
  0.1074625794   11   4   8   3
  -0.0434877909   11   4   8   7
  0.2010579828   11   4   9   2
  0.0988677776   11   4   9   5
  -0.2617426801   11   4   10   6
  0.1491521428   11   4   10   9
  0.2822225044   11   4   11   4
  0.0889560915   11   5   2   1
  0.1083949862   11   5   3   2
  0.1865932250   11   5   5   1
  -0.2246801618   11   5   5   3
  -0.1370140720   11   5   6   4
  0.2233701948   11   5   7   2
  -0.1883891353   11   5   7   5
  0.0293949673   11   5   8   6
  0.1651871927   11   5   9   4
  -0.0647136696   11   5   9   8
  0.0171632921   11   5   10   1
  0.2308862138   11   5   10   3
  0.0900377953   11   5   10   7
  -0.1032749797   11   5   11   2
  0.2522218797   11   5   11   5
  0.0845056204   11   6   4   2
  -0.1180516883   11   6   5   4
  -0.0904298651   11   6   6   1
  0.2328447840   11   6   6   3
  -0.0070446738   11   6   7   6
  0.2664715864   11   6   8   2
  -0.0501062894   11   6   8   5
  -0.1973519638   11   6   9   1
  0.0858005753   11   6   9   3
  -0.0238186361   11   6   9   7
  -0.2586600484   11   6   10   4
  -0.1691583271   11   6   10   8
  0.3969524190   11   6   11   6
  0.3175096307   11   7   1   1
  0.0479607182   11   7   2   2
  0.2751846498   11   7   3   1
  0.0562717719   11   7   3   3
  0.2670353982   11   7   4   4
  0.2715252034   11   7   5   2
  -0.1634272187   11   7   5   5
  0.0527934366   11   7   6   6
  -0.0177744152   11   7   7   1
  -0.3903130942   11   7   7   3
  0.1084245498   11   7   7   7
  -0.2037691640   11   7   8   4
  0.0566018226   11   7   8   8
  -0.1779267469   11   7   9   6
  0.1060374738   11   7   9   9
  -0.0446168907   11   7   10   2
  0.1683770310   11   7   10   5
  0.1060374738   11   7   10   10
  -0.0856262327   11   7   11   1
  0.0002457463   11   7   11   3
  0.2583173589   11   7   11   7
  -0.2160822174   11   8   4   1
  0.1206133346   11   8   4   3
  0.3419058265   11   8   6   2
  -0.0105890838   11   8   6   5
  -0.0796645270   11   8   7   4
  -0.1325907541   11   8   8   1
  0.2462791763   11   8   8   3
  -0.0066177418   11   8   8   7
  0.0694632494   11   8   9   2
  -0.1665336777   11   8   9   5
  -0.1643450726   11   8   10   6
  -0.3960315785   11   8   10   9
  0.1011606020   11   8   11   4
  0.5052178589   11   8   11   8
  0.2615498184   11   9   4   2
  0.1305018921   11   9   5   4
  -0.2720710913   11   9   6   1
  0.1000820537   11   9   6   3
  -0.0751276016   11   9   7   6
  0.1170377883   11   9   8   2
  -0.1227284100   11   9   8   5
  0.1582436117   11   9   9   1
  0.2034801485   11   9   9   3
  -0.0030490019   11   9   9   7
  0.1417956218   11   9   10   4
  -0.3806453092   11   9   10   8
  0.1691583271   11   9   11   6
  0.3806453092   11   9   11   9
  0.4941785572   11   10   2   1
  -0.4045657659   11   10   3   2
  0.0643313146   11   10   5   1
  0.4508557974   11   10   5   3
  -0.5819745249   11   10   6   4
  0.0045491250   11   10   7   2
  0.4558324387   11   10   7   5
  -0.4381751837   11   10   8   6
  0.1684177493   11   10   9   4
  -0.6184024894   11   10   9   8
  0.1282344788   11   10   10   1
  0.2139885686   11   10   10   3
  -0.2197789881   11   10   10   7
  -0.0697858470   11   10   11   2
  0.0647136696   11   10   11   5
  0.6184024894   11   10   11   10
  1.7464700230   11   11   1   1
  1.7119205516   11   11   2   2
  0.0352515748   11   11   3   1
  1.7666313453   11   11   3   3
  1.7743127545   11   11   4   4
  -0.0236441907   11   11   5   2
  1.6085751350   11   11   5   5
  1.8220414101   11   11   6   6
  -0.0650060319   11   11   7   1
  -0.0874487899   11   11   7   3
  1.6402480724   11   11   7   7
  0.0496572230   11   11   8   4
  1.8733175843   11   11   8   8
  0.0970895409   11   11   9   6
  1.7680923132   11   11   9   9
  -0.0816180406   11   11   10   2
  0.0980778693   11   11   10   5
  1.7680923132   11   11   10   10
  -0.1277120697   11   11   11   1
  0.1247429275   11   11   11   3
  0.0566018226   11   11   11   7
  1.8733175843   11   11   11   11
  -0.0002504265   12   1   4   1
  -0.1480066578   12   1   4   3
  -0.1419976723   12   1   6   2
  -0.1480266414   12   1   6   5
  0.2544597146   12   1   7   4
  0.1294580751   12   1   8   1
  0.1224505414   12   1   8   3
  -0.0098364329   12   1   8   7
  0.0881443676   12   1   9   2
  0.0078979720   12   1   9   5
  0.0878984639   12   1   10   6
  -0.0020200660   12   1   10   9
  0.0797478832   12   1   11   4
  -0.1021348997   12   1   11   8
  0.3275601599   12   1   12   1
  0.1617758289   12   2   4   2
  0.1802080096   12   2   5   4
  -0.1572944161   12   2   6   1
  -0.0086589207   12   2   6   3
  -0.2454155543   12   2   7   6
  -0.0058516537   12   2   8   2
  0.1245349236   12   2   8   5
  0.1246969035   12   2   9   1
  -0.0782922422   12   2   9   3
  0.0120263826   12   2   9   7
  -0.0487381981   12   2   10   4
  -0.1006442430   12   2   10   8
  0.0071197560   12   2   11   6
  0.1006442430   12   2   11   9
  0.3310931180   12   2   12   2
  -0.1852667722   12   3   4   1
  -0.1964052479   12   3   4   3
  -0.0065308892   12   3   6   2
  0.1859729999   12   3   6   5
  0.0150329238   12   3   7   4
  0.1756936001   12   3   8   1
  -0.0005930893   12   3   8   3
  -0.2396605127   12   3   8   7
  -0.1410309183   12   3   9   2
  0.0836150167   12   3   9   5
  -0.0290724126   12   3   10   6
  -0.1138393155   12   3   10   9
  0.0656645139   12   3   11   4
  0.0062548115   12   3   11   8
  0.0170252419   12   3   12   1
  0.3619488690   12   3   12   3
  0.0067090338   12   4   1   1
  0.1967103533   12   4   2   2
  -0.1909939782   12   4   3   1
  -0.1746295861   12   4   3   3
  0.0055683539   12   4   4   4
  0.1905952849   12   4   5   2
  0.0335623374   12   4   5   5
  0.1284052435   12   4   6   6
  0.3207585842   12   4   7   1
  0.0243703526   12   4   7   3
  0.0181866035   12   4   7   7
  0.1167093805   12   4   8   4
  -0.0512202098   12   4   8   8
  -0.0443672378   12   4   9   6
  0.0127389390   12   4   9   9
  -0.1134847935   12   4   10   2
  -0.0116523491   12   4   10   5
  0.0127389390   12   4   10   10
  0.1012421074   12   4   11   1
  0.1433811249   12   4   11   3
  -0.0148727643   12   4   11   7
  -0.0512202098   12   4   11   11
  0.2490033895   12   4   12   4
  0.2265426898   12   5   4   2
  0.0170297808   12   5   5   4
  -0.2218895587   12   5   6   1
  0.2109410355   12   5   6   3
  -0.0226299197   12   5   7   6
  0.2001939020   12   5   8   2
  -0.1971769134   12   5   8   5
  0.0106953740   12   5   9   1
  0.1683612352   12   5   9   3
  0.2014176016   12   5   9   7
  -0.0020345871   12   5   10   4
  0.0020050752   12   5   10   8
  -0.0489396675   12   5   11   6
  -0.0020050752   12   5   11   9
  0.0284734366   12   5   12   2
  0.4232642007   12   5   12   5
  -0.2316985743   12   6   2   1
  0.0051648826   12   6   3   2
  -0.2390463893   12   6   5   1
  0.1781706022   12   6   5   3
  0.1714283964   12   6   6   4
  -0.3387349863   12   6   7   2
  -0.0550111817   12   6   7   5
  0.0127021843   12   6   8   6
  -0.1323760986   12   6   9   4
  0.0035198300   12   6   9   8
  0.0638411274   12   6   10   1
  -0.1396192345   12   6   10   3
  0.0251512809   12   6   10   7
  0.0065235210   12   6   11   2
  -0.1649449126   12   6   11   5
  -0.0035198300   12   6   11   10
  0.2511809011   12   6   12   6
  0.3901237199   12   7   4   1
  0.0225211098   12   7   4   3
  -0.3652430702   12   7   6   2
  -0.0282026844   12   7   6   5
  0.0044120602   12   7   7   4
  -0.0168473372   12   7   8   1
  -0.3454823290   12   7   8   3
  0.0289198216   12   7   8   7
  0.0184832197   12   7   9   2
  0.2866676886   12   7   9   5
  0.0018482921   12   7   10   6
  0.0650430543   12   7   10   9
  -0.0025423622   12   7   11   4
  0.0383623219   12   7   11   8
  0.0066602991   12   7   12   1
  -0.0396411696   12   7   12   3
  0.5732134243   12   7   12   7
  0.3175096307   12   8   1   1
  0.0479607182   12   8   2   2
  0.2751846498   12   8   3   1
  0.0562717719   12   8   3   3
  0.2670353982   12   8   4   4
  0.2715252034   12   8   5   2
  -0.1634272187   12   8   5   5
  0.0527934366   12   8   6   6
  -0.0177744152   12   8   7   1
  -0.3903130942   12   8   7   3
  0.1084245498   12   8   7   7
  -0.2037691640   12   8   8   4
  0.0566018226   12   8   8   8
  -0.1779267469   12   8   9   6
  0.1060374738   12   8   9   9
  -0.0446168907   12   8   10   2
  0.1683770310   12   8   10   5
  0.1060374738   12   8   10   10
  -0.0856262327   12   8   11   1
  0.0002457463   12   8   11   3
  0.2583173589   12   8   11   7
  0.0566018226   12   8   11   11
  -0.0148727643   12   8   12   4
  0.2583173589   12   8   12   8
  0.3028445533   12   9   2   1
  -0.2866059551   12   9   3   2
  0.0237700780   12   9   5   1
  0.2865320299   12   9   5   3
  -0.2546707576   12   9   6   4
  0.0329567119   12   9   7   2
  0.4199149600   12   9   7   5
  -0.2329762624   12   9   8   6
  0.0152643793   12   9   9   4
  -0.2197789881   12   9   9   8
  -0.0033518100   12   9   10   1
  -0.0209534226   12   9   10   3
  -0.2007478251   12   9   10   7
  0.0608804595   12   9   11   2
  -0.0900377953   12   9   11   5
  0.2197789881   12   9   11   10
  -0.0251512809   12   9   12   6
  0.2007478251   12   9   12   9
  -0.1061150237   12   10   4   2
  -0.0067762953   12   10   5   4
  0.1038651578   12   10   6   1
  -0.1001743803   12   10   6   3
  0.0096392019   12   10   7   6
  -0.0949931558   12   10   8   2
  0.0936942892   12   10   8   5
  -0.0037170445   12   10   9   1
  -0.0794519062   12   10   9   3
  -0.0958629541   12   10   9   7
  0.0017804710   12   10   10   4
  -0.0030490019   12   10   10   8
  0.0238186361   12   10   11   6
  0.0030490019   12   10   11   9
  -0.0120263826   12   10   12   2
  -0.2014176016   12   10   12   5
  0.0958629541   12   10   12   10
  0.1257085099   12   11   4   1
  0.1292318618   12   11   4   3
  0.0004943060   12   11   6   2
  -0.1236693096   12   11   6   5
  -0.0088407360   12   11   7   4
  -0.1155201126   12   11   8   1
  -0.0021508951   12   11   8   3
  0.1587178394   12   11   8   7
  0.0935052174   12   11   9   2
  -0.0529522338   12   11   9   5
  0.0200162232   12   11   10   6
  0.0777916477   12   11   10   9
  -0.0434877909   12   11   11   4
  -0.0066177418   12   11   11   8
  -0.0098364329   12   11   12   1
  -0.2396605127   12   11   12   3
  0.0289198216   12   11   12   7
  0.1587178394   12   11   12   11
  1.9401205452   12   12   1   1
  1.8484153090   12   12   2   2
  0.1048642841   12   12   3   1
  1.8428728233   12   12   3   3
  1.7886181221   12   12   4   4
  0.1390260785   12   12   5   2
  1.8411123548   12   12   5   5
  1.6837692574   12   12   6   6
  0.0243757141   12   12   7   1
  -0.1607790217   12   12   7   3
  2.0512028195   12   12   7   7
  -0.0898494423   12   12   8   4
  1.6402480724   12   12   8   8
  -0.0960968868   12   12   9   6
  1.6214753332   12   12   9   9
  -0.0156439301   12   12   10   2
  -0.1345399253   12   12   10   5
  1.6214753332   12   12   10   10
  -0.0121919166   12   12   11   1
  -0.2386604401   12   12   11   3
  0.1084245498   12   12   11   7
  1.6402480724   12   12   11   11
  0.0181866035   12   12   12   4
  0.1084245498   12   12   12   8
  2.0512028195   12   12   12   12
  0.0712607481   13   1   2   1
  -0.0399583389   13   1   3   2
  0.0598687257   13   1   5   1
  -0.0480768936   13   1   5   3
  0.0574816394   13   1   6   4
  0.1401336179   13   1   7   2
  0.1656026971   13   1   7   5
  0.0382821568   13   1   8   6
  -0.0506031575   13   1   9   4
  0.1723500688   13   1   9   8
  -0.1069520269   13   1   10   1
  -0.1193396190   13   1   10   3
  -0.0775765507   13   1   10   7
  0.1107033884   13   1   11   2
  -0.0865563526   13   1   11   5
  -0.1723500688   13   1   11   10
  -0.1045899131   13   1   12   6
  0.0775765507   13   1   12   9
  0.2302132528   13   1   13   1
  0.0914358401   13   2   1   1
  0.1375367313   13   2   2   2
  -0.0386398940   13   2   3   1
  -0.0005576582   13   2   3   3
  -0.0249221165   13   2   4   4
  0.1238808005   13   2   5   2
  0.1919204677   13   2   5   5
  -0.0702578447   13   2   6   6
  0.1465411041   13   2   7   1