 &FCI NORB= 26,NELEC= ,MS0= ,
  ORBSYM=1,2,1,2,3,1,4,3,2,1,4,3,4,2,1,2,3,4,1,2,3,1,4,3,4,3,
  ISYM=1,
 /
  -37.6319574999725432462582830   1   1   0   0
  -35.4961986256091890368224995   2   2   0   0
  1.8228056026115344590010636   3   1   0   0
  -34.4002998655106893011179636   3   3   0   0
  2.4136168837424682998005210   4   2   0   0
  -33.3960301522098532700510987   4   4   0   0
  -34.8074731769721381624549394   5   5   0   0
  -0.5867333098465165042156855   6   1   0   0
  -2.7587316926220646351453070   6   3   0   0
  -32.2390890625044193029680173   6   6   0   0
  -0.0000000207935685891946775   7   5   0   0
  -32.7028982027846453206620936   7   7   0   0
  1.7324351325223632525052153   8   5   0   0
  -0.0000000133365994081646733   8   7   0   0
  -31.6042525792789099625679228   8   8   0   0
  0.8995102069708587055885118   9   2   0   0
  3.1576814691872048257437200   9   4   0   0
  -30.4940479159201878189833224   9   9   0   0
  0.2364046346092156247742366   10   1   0   0
  -0.0000000179446494330548489   10   2   0   0
  0.9475382780397303417174726   10   3   0   0
  -0.0000000588450055349909462   10   4   0   0
  -3.2349798804039648913999372   10   6   0   0
  -0.0000001518580221571141919   10   9   0   0
  -32.4699169933311893032623630   10   10   0   0
  2.2306155038268782320187711   11   7   0   0
  -0.0000000125234699277498862   11   8   0   0
  -30.6838899195276901821216597   11   11   0   0
  0.4778449213590278410457302   12   5   0   0
  2.3401044911543831261724335   12   8   0   0
  -0.0000000158770244174100128   12   11   0   0
  -29.9677313930576012523943064   12   12   0   0
  -0.5326010867980861540615933   13   7   0   0
  -2.0018482152903684934130979   13   11   0   0
  0.0000000207066302992942042   13   12   0   0
  -30.4656401393935354349196132   13   13   0   0
  0.0905585166740453528788635   14   2   0   0
  0.2146075139168790446575485   14   4   0   0
  -0.0000000130889374894138655   14   6   0   0
  1.0924590810807544016824977   14   9   0   0
  -0.0000000910791803088173424   14   10   0   0
  -29.6525946219446296936439467   14   14   0   0
  -0.0521242938719178039441715   15   1   0   0
  -0.1686858419815646659145614   15   3   0   0
  0.1069078681222981330734001   15   6   0   0
  0.0000000317974672148224613   15   9   0   0
  -1.7867384535963726222007608   15   10   0   0
  -0.0000000137538614386478741   15   14   0   0
  -27.5625960501827691473408777   15   15   0   0
  0.0991759786546192456668791   16   2   0   0
  -0.0000000112312702471584203   16   3   0   0
  -0.4139790267406174839592836   16   4   0   0
  0.0000000383522619218368277   16   6   0   0
  1.3315205704238324280197503   16   9   0   0
  -0.0000000485966832330930743   16   10   0   0
  1.9749760807084772995523281   16   14   0   0
  -26.6372075049210543795652484   16   16   0   0
  -0.1868020669194862537487722   17   5   0   0
  -0.0000000138350314538016050   17   7   0   0
  -0.7124836998426473666512493   17   8   0   0
  -0.0000000397725484768685078   17   11   0   0
  -1.9078467881565779329378074   17   12   0   0
  0.0000000321407890857550171   17   13   0   0
  -27.6668140164319140694715315   17   17   0   0
  0.5217242661977026241260091   18   7   0   0
  1.4622462049094817615468855   18   11   0   0
  -0.0000000191477038669063404   18   12   0   0
  -1.0777685836346702075161375   18   13   0   0
  -0.0000001662962924031674561   18   17   0   0
  -24.8791289666032895411262871   18   18   0   0
  -0.0445094495559188174649279   19   1   0   0
  0.0000000161773747175963933   19   2   0   0
  0.6832437789371903491542071   19   3   0   0
  0.0000000395169783562465682   19   4   0   0
  0.6854682285056914459175914   19   6   0   0
  0.0000000133674171731712477   19   9   0   0
  -0.6351354095412362621431157   19   10   0   0
  2.3216967616778618754835861   19   15   0   0
  -26.1256288655191930558885360   19   19   0   0
  -0.0000000154190512302587734   20   1   0   0
  -0.8392657280415547482732563   20   2   0   0
  -0.0000000361448794783392202   20   3   0   0
  0.3466582934586114883579455   20   4   0   0
  0.4538601925087064614672272   20   9   0   0
  -0.0000000161976868584545741   20   10   0   0
  0.5188566797716589462652337   20   14   0   0
  2.2243023391066989447040214   20   16   0   0
  -26.1275262212485621660107427   20   20   0   0
  0.2075418309279115913756897   21   5   0   0
  0.7690384657901974119198485   21   8   0   0
  0.0911296884395481621155000   21   12   0   0
  -0.0000000137555128953970041   21   13   0   0
  -3.1238136440269999027918857   21   17   0   0
  -25.0361511067568969224339526   21   21   0   0
  -0.9520049540842747681779201   22   1   0   0
  -0.0000000270303850968822701   22   2   0   0
  0.1521162263855466434403496   22   3   0   0
  -0.1768819943785927550905512   22   6   0   0
  0.1625472748358020302905658   22   10   0   0
  -0.4710135168959379003972288   22   15   0   0
  -1.7329644777308443881480571   22   19   0   0
  0.0000000177695591851989576   22   20   0   0
  -27.5457548311774189642164856   22   22   0   0
  0.3911437686166165939027906   23   7   0   0
  -0.4069469875423806226599766   23   11   0   0
  0.0000000286330406051860109   23   12   0   0
  -0.1788785158857105206386962   23   13   0   0
  -0.0000000638077649606216823   23   17   0   0
  3.0474195011496933993555558   23   18   0   0
  0.0000000132631448046538480   23   21   0   0
  -24.5508098913979573296728631   23   23   0   0
  0.1681856763887477068664111   24   5   0   0
  0.0000000156943009144150381   24   7   0   0
  -0.6495694914737869529730574   24   8   0   0
  0.0000000333048774669997272   24   11   0   0
  0.1257854514206033780254756   24   12   0   0
  -0.8923492248964501882824152   24   17   0   0
  0.0000000100210759690355644   24   18   0   0
  2.6908088333267734526543791   24   21   0   0
  0.0000000130283272503639580   24   23   0   0
  -24.1224423258298230621221592   24   24   0   0
  -0.0000000156766884751302626   25   5   0   0
  0.7837242274732233449086038   25   7   0   0
  -0.0000000319501504142394310   25   8   0   0
  -0.0661746304005766394773502   25   11   0   0
  0.0667866657801044483200315   25   13   0   0
  0.0000000197789121747504737   25   17   0   0
  -0.8547530566018609610168255   25   18   0   0
  -2.3768623753155702083006418   25   23   0   0
  -24.1212379221464665590701770   25   25   0   0
  -0.8803583858144488072383638   26   5   0   0
  0.0000000243232905067225502   26   7   0   0
  0.0277197860872595847059330   26   8   0   0
  0.0345258796793000699576481   26   12   0   0
  -0.2200546082167036399113158   26   17   0   0
  0.5678402267389103252881455   26   21   0   0
  1.8069079056490371382182047   26   24   0   0
  -25.5703785698708614404495165   26   26   0   0
  1.8233909558   1   1   1   1
  0.6345658491   2   1   2   1
  1.4938950483   2   2   1   1
  1.6175772104   2   2   2   2
  -0.3324042526   3   1   1   1
  0.1223175905   3   1   2   2
  0.4564181449   3   1   3   1
  0.4089348183   3   2   2   1
  0.5361968489   3   2   3   2
  1.4859557276   3   3   1   1
  1.4365797357   3   3   2   2
  -0.0511117634   3   3   3   1
  1.5484695116   3   3   3   3
  -0.2266662103   4   1   2   1
  0.1266814871   4   1   3   2
  0.3541797052   4   1   4   1
  -0.3437988106   4   2   1   1
  -0.0621557444   4   2   2   2
  0.2832026402   4   2   3   1
  0.0572574150   4   2   3   3
  0.4032429179   4   2   4   2
  0.4049018968   4   3   2   1
  0.3874801274   4   3   3   2
  -0.0179229826   4   3   4   1
  0.4353120559   4   3   4   3
  1.4812694469   4   4   1   1
  1.4302471181   4   4   2   2
  -0.0530898645   4   4   3   1
  1.3515696894   4   4   3   3
  -0.1362731689   4   4   4   2
  1.5446552019   4   4   4   4
  0.4246415720   5   1   5   1
  0.2513846186   5   2   5   2
  -0.1315661771   5   3   5   1
  0.2278600387   5   3   5   3
  -0.1157089143   5   4   5   2
  0.2028964509   5   4   5   4
  1.7757724930   5   5   1   1
  1.4538316429   5   5   2   2
  -0.3219333531   5   5   3   1
  1.4450472620   5   5   3   3
  -0.3290391570   5   5   4   2
  1.4355106466   5   5   4   4
  1.7897246071   5   5   5   5
  0.0098454934   6   1   1   1
  0.1851516637   6   1   2   2
  0.1756474373   6   1   3   1
  -0.1072693319   6   1   3   3
  -0.1171714980   6   1   4   2
  0.0858759074   6   1   4   4
  0.0075738387   6   1   5   5
  0.2937102827   6   1   6   1
  0.2336747856   6   2   2   1
  0.0274509097   6   2   3   2
  -0.2075446457   6   2   4   1
  -0.0228940125   6   2   4   3
  0.2554501787   6   2   6   2
  0.3516402981   6   3   1   1
  0.0747382077   6   3   2   2
  -0.2785580918   6   3   3   1
  0.1483726047   6   3   3   3
  -0.2053567791   6   3   4   2
  -0.0528651329   6   3   4   4
  0.3324547246   6   3   5   5
  -0.0779154326   6   3   6   1
  0.4085615260   6   3   6   3
  -0.3987850601   6   4   2   1
  -0.3084291363   6   4   3   2
  0.0925800339   6   4   4   1
  -0.3983207091   6   4   4   3
  -0.0026602384   6   4   6   2
  0.5116518269   6   4   6   4
  -0.0007822574   6   5   5   1
  0.1016632825   6   5   5   3
  0.1775110061   6   5   6   5
  1.4719124231   6   6   1   1
  1.3327585942   6   6   2   2
  -0.1422776451   6   6   3   1
  1.4352149973   6   6   3   3
  -0.0430614710   6   6   4   2
  1.4268315474   6   6   4   4
  1.4183795353   6   6   5   5
  -0.1069447500   6   6   6   1
  0.0581738636   6   6   6   3
  1.5572815537   6   6   6   6
  -0.2540455905   7   1   5   2
  0.1168670253   7   1   5   4
  0.2568053084   7   1   7   1
  -0.2929017207   7   2   5   1
  -0.0984849195   7   2   5   3
  -0.1018821631   7   2   6   5
  0.3935820047   7   2   7   2
  -0.1325639924   7   3   5   2
  -0.0913698913   7   3   5   4
  0.1339186662   7   3   7   1
  0.2255584464   7   3   7   3
  0.1298300827   7   4   5   1
  -0.1205180482   7   4   5   3
  0.0825010126   7   4   6   5
  -0.0085413840   7   4   7   2
  0.2058702586   7   4   7   4
  -0.5997229152   7   5   2   1
  -0.3843848935   7   5   3   2
  0.2127030558   7   5   4   1
  -0.3807638942   7   5   4   3
  -0.2135869173   7   5   6   2
  0.3733108421   7   5   6   4
  0.6096551780   7   5   7   5
  -0.1118357129   7   6   5   2
  0.1047447859   7   6   5   4
  0.1127983985   7   6   7   1
  0.0052661383   7   6   7   3
  0.1664172039   7   6   7   6
  1.4614800960   7   7   1   1
  1.5633022211   7   7   2   2
  0.1018342509   7   7   3   1
  1.3927456613   7   7   3   3
  -0.0680474050   7   7   4   2
  1.3848911784   7   7   4   4
  1.4659823234   7   7   5   5
  0.1658554033   7   7   6   1
  0.0752900131   7   7   6   3
  1.3184601102   7   7   6   6
  1.5819308579   7   7   7   7
  -0.1263150317   8   1   5   1
  0.2288306454   8   1   5   3
  0.1026629977   8   1   6   5
  -0.1050470192   8   1   7   2
  -0.1197073494   8   1   7   4
  0.2305399389   8   1   8   1
  0.1378684863   8   2   5   2
  0.0892326326   8   2   5   4
  -0.1393498638   8   2   7   1
  -0.2287922328   8   2   7   3
  -0.0073515860   8   2   7   6
  0.2324255522   8   2   8   2
  0.2882920162   8   3   5   1
  -0.0051605595   8   3   5   3
  -0.0820502073   8   3   6   5
  -0.2839086431   8   3   7   2
  -0.0808320899   8   3   7   4
  -0.0004694920   8   3   8   1
  0.3680990426   8   3   8   3
  0.1286593364   8   4   5   2
  -0.0009128615   8   4   5   4
  -0.1299974295   8   4   7   1
  -0.1271922172   8   4   7   3
  0.0692597601   8   4   7   6
  0.1300433206   8   4   8   2
  0.2047102619   8   4   8   4
  -0.3101444532   8   5   1   1
  0.1102268742   8   5   2   2
  0.4202178689   8   5   3   1
  -0.0503172070   8   5   3   3
  0.2584322279   8   5   4   2
  -0.0482890185   8   5   4   4
  -0.3225602322   8   5   5   5
  0.1570950136   8   5   6   1
  -0.2545313860   8   5   6   3
  -0.0962136286   8   5   6   6
  0.1153134030   8   5   7   7
  0.4362280402   8   5   8   5
  0.1251538197   8   6   5   1
  -0.1149457524   8   6   5   3
  -0.0128852783   8   6   6   5
  -0.0094378311   8   6   7   2
  0.1062947938   8   6   7   4
  -0.1142721579   8   6   8   1
  0.0112682721   8   6   8   3
  0.1879187798   8   6   8   6
  -0.3936460875   8   7   2   1
  -0.4990987103   8   7   3   2
  -0.1052231496   8   7   4   1
  -0.3656050134   8   7   4   3
  -0.0288242286   8   7   6   2
  0.3309225733   8   7   6   4
  0.3940670620   8   7   7   5
  0.5187471618   8   7   8   7
  1.4451843593   8   8   1   1
  1.3970006607   8   8   2   2
  -0.0478320699   8   8   3   1
  1.4851591924   8   8   3   3
  0.0402525866   8   8   4   2
  1.3526215652   8   8   4   4
  1.4552234405   8   8   5   5
  -0.0846516740   8   8   6   1
  0.0930960808   8   8   6   3
  1.3605947317   8   8   6   6
  1.4082592730   8   8   7   7
  -0.0471048704   8   8   8   5
  1.5176761340   8   8   8   8
  -0.0036767240   9   1   2   1
  -0.1528982552   9   1   3   2
  -0.1495632394   9   1   4   1
  0.0316023966   9   1   4   3
  -0.0354646339   9   1   6   2
  -0.1049006556   9   1   6   4
  0.0013807080   9   1   7   5
  0.1228159990   9   1   8   7
  0.1821922100   9   1   9   1
  -0.0129784362   9   2   1   1
  -0.1931847923   9   2   2   2
  -0.1807980513   9   2   3   1
  -0.1085609191   9   2   3   3
  -0.0961630115   9   2   4   2
  0.1102491943   9   2   4   4
  -0.0103067729   9   2   5   5
  -0.0853893456   9   2   6   1
  -0.1267299674   9   2   6   3
  0.0985819274   9   2   6   6
  -0.1626883474   9   2   7   7
  -0.1509487250   9   2   8   5
  -0.0578044808   9   2   8   8
  0.3153481494   9   2   9   2
  -0.2400783873   9   3   2   1
  -0.1212563024   9   3   3   2
  0.1194781305   9   3   4   1
  -0.0161303592   9   3   4   3
  -0.2302240860   9   3   6   2
  -0.1040429105   9   3   6   4
  0.2107557833   9   3   7   5
  0.0751254679   9   3   8   7
  0.1193560553   9   3   9   1
  0.3503029224   9   3   9   3
  -0.3615244183   9   4   1   1
  -0.1880578921   9   4   2   2
  0.1748689935   9   4   3   1
  -0.0691212128   9   4   3   3
  0.0000000105   9   4   4   1
  0.2968662213   9   4   4   2
  -0.0772387819   9   4   4   4
  -0.3332453169   9   4   5   5
  -0.1266462489   9   4   6   1
  -0.2905034473   9   4   6   3
  0.0603546627   9   4   6   6
  -0.1470661933   9   4   7   7
  0.1841845891   9   4   8   5
  -0.0759361251   9   4   8   8
  0.1192707976   9   4   9   2
  0.4271443960   9   4   9   4
  0.0016401882   9   5   5   2
  -0.0866243879   9   5   5   4
  -0.0016926838   9   5   7   1
  0.0858666219   9   5   7   3
  0.0464900761   9   5   7   6
  -0.0850550799   9   5   8   2
  0.0512450836   9   5   8   4
  0.1167758927   9   5   9   5
  -0.2650384584   9   6   2   1
  -0.0000000135   9   6   3   1
  -0.4094025177   9   6   3   2
  -0.1471577952   9   6   4   1
  -0.3950757911   9   6   4   3
  0.1318606195   9   6   6   2
  0.3935918453   9   6   6   4
  0.2684914377   9   6   7   5
  -0.0000000115   9   6   8   5
  0.3621380938   9   6   8   7
  0.0234082254   9   6   9   1
  -0.1262368068   9   6   9   3
  0.5564501081   9   6   9   6
  -0.0016462259   9   7   5   1
  0.0929045816   9   7   5   3
  0.0609143036   9   7   6   5
  -0.0916231576   9   7   7   2
  -0.0262358490   9   7   7   4
  0.0926513693   9   7   8   1
  0.0225558226   9   7   8   3
  0.0745086299   9   7   8   6
  0.1600714585   9   7   9   7
  -0.1008753403   9   8   5   2
  0.0731037086   9   8   5   4
  0.1014484091   9   8   7   1
  0.0241262832   9   8   7   3
  0.0998433425   9   8   7   6
  -0.0232085957   9   8   8   2
  0.0015123736   9   8   8   4
  0.0401564841   9   8   9   5
  0.1554726537   9   8   9   8
  1.2677782172   9   9   1   1
  0.0000000214   9   9   2   1
  1.4492780240   9   9   2   2
  0.1810546902   9   9   3   1
  0.0000000127   9   9   3   2
  1.4197942713   9   9   3   3
  0.1483245153   9   9   4   2
  0.0000000121   9   9   4   3
  1.4163699925   9   9   4   4
  1.2282175005   9   9   5   5
  0.0376761266   9   9   6   1
  -0.1376627447   9   9   6   3
  -0.0000000122   9   9   6   4
  1.4204882746   9   9   6   6
  -0.0000000191   9   9   7   5
  1.3560264873   9   9   7   7
  0.1276825525   9   9   8   5
  -0.0000000113   9   9   8   7
  1.3227917032   9   9   8   8
  -0.0573951281   9   9   9   2
  -0.0000000105   9   9   9   3
  0.1261815410   9   9   9   4
  -0.0000000127   9   9   9   6
  1.6370783506   9   9   9   9
  -0.0031348521   10   1   1   1
  -0.0032615317   10   1   2   2
  -0.0002081982   10   1   3   1
  -0.1715655505   10   1   3   3
  -0.1691100737   10   1   4   2
  0.1655643507   10   1   4   4
  -0.0027978418   10   1   5   5
  0.1707860435   10   1   6   1
  -0.1727593513   10   1   6   3
  -0.0186710801   10   1   6   6
  -0.0008452014   10   1   7   7
  0.0020371777   10   1   8   5
  -0.1066637112   10   1   8   8
  0.1855913571   10   1   9   2
  -0.0168869660   10   1   9   4
  -0.0136114416   10   1   9   9
  0.2927327844   10   1   10   1
  -0.0034902804   10   2   2   1
  -0.1912557990   10   2   3   2
  -0.1892213531   10   2   4   1
  0.0038058113   10   2   4   3
  -0.0109702100   10   2   6   2
  -0.1660158843   10   2   6   4
  0.0007750765   10   2   7   5
  0.1302572352   10   2   8   7
  0.2136397522   10   2   9   1
  0.1802371249   10   2   9   3
  0.0334609242   10   2   9   6
  0.2995150580   10   2   10   2
  -0.0119102476   10   3   1   1
  -0.2369861991   10   3   2   2
  -0.2261273739   10   3   3   1
  -0.0089589822   10   3   3   3
  0.0033463834   10   3   4   2
  -0.0189951215   10   3   4   4
  -0.0090356908   10   3   5   5
  -0.2378946345   10   3   6   1
  0.0050010418   10   3   6   3
  0.1714224906   10   3   6   6
  -0.1799020624   10   3   7   7
  -0.1688489642   10   3   8   5
  -0.0171695456   10   3   8   8
  0.2334973544   10   3   9   2
  0.1921026584   10   3   9   4
  -0.0651659310   10   3   9   9
  -0.0176159996   10   3   10   1
  0.3374924671   10   3   10   3
  -0.2969192842   10   4   2   1
  0.0000000100   10   4   2   2
  -0.0119381734   10   4   3   2
  0.2899310499   10   4   4   1
  -0.0244393251   10   4   4   3
  -0.2821157155   10   4   6   2
  0.0255975995   10   4   6   4
  0.2425568103   10   4   7   5
  0.0214286778   10   4   8   7
  -0.0185928087   10   4   9   1
  0.2839839565   10   4   9   3
  -0.2140413664   10   4   9   6
  -0.0000000111   10   4   9   9
  -0.0277533308   10   4   10   2
  -0.0000000104   10   4   10   3
  0.4096509156   10   4   10   4
  0.0002900196   10   5   5   1
  0.0022806090   10   5   5   3
  0.0856815344   10   5   6   5
  -0.0026755328   10   5   7   2
  0.0816925544   10   5   7   4
  0.0025155008   10   5   8   1
  -0.0782034666   10   5   8   3
  -0.0793568264   10   5   8   6
  -0.0885381954   10   5   9   7
  0.1440680324   10   5   10   5
  0.4446863847   10   6   1   1
  -0.0000000102   10   6   2   1
  0.0572645463   10   6   2   2
  -0.3914221143   10   6   3   1
  0.0787729138   10   6   3   3
  -0.3738743053   10   6   4   2
  0.0824399625   10   6   4   4
  0.3928288444   10   6   5   5
  -0.0238943005   10   6   6   1
  0.3740651941   10   6   6   3
  0.0818540616   10   6   6   6
  0.0000000109   10   6   7   5
  0.0691308150   10   6   7   7
  -0.3183006733   10   6   8   5
  0.0814483327   10   6   8   8
  0.0367737753   10   6   9   2
  -0.3759470834   10   6   9   4
  -0.2422873211   10   6   9   9
  0.0080355654   10   6   10   1
  0.0445091269   10   6   10   3
  0.0000000131   10   6   10   4
  0.5446570471   10   6   10   6
  -0.0028203897   10   7   5   2
  0.0866512073   10   7   5   4
  0.0028880008   10   7   7   1
  -0.0824157882   10   7   7   3
  -0.0036283034   10   7   7   6
  0.0795718146   10   7   8   2
  -0.0028870742   10   7   8   4
  -0.0967992432   10   7   9   5
  -0.0784947082   10   7   9   8
  0.1348317999   10   7   10   7
  0.0027927265   10   8   5   1
  -0.0891142115   10   8   5   3
  -0.0950126302   10   8   6   5
  0.0852915448   10   8   7   2
  -0.0023493439   10   8   7   4
  -0.0861114209   10   8   8   1
  0.0032968755   10   8   8   3
  -0.0002962588   10   8   8   6
  -0.0922847972   10   8   9   7
  -0.0072683344   10   8   10   5
  0.1284840791   10   8   10   8
  0.0000000206   10   9   1   1
  0.5799178717   10   9   2   1
  -0.0000000127   10   9   3   1
  0.5377393643   10   9   3   2
  -0.0456280607   10   9   4   1
  -0.0000000132   10   9   4   2
  0.5307296997   10   9   4   3
  0.0000000211   10   9   5   5
  0.0623294741   10   9   6   2
  0.0000000138   10   9   6   3
  -0.5324227094   10   9   6   4
  -0.5043210875   10   9   7   5
  -0.0000000114   10   9   8   5
  -0.4642681818   10   9   8   7
  -0.0153323113   10   9   9   1
  -0.0773153611   10   9   9   3
  -0.0000000157   10   9   9   4
  -0.5303918650   10   9   9   6
  0.0000000115   10   9   9   9
  -0.0206661319   10   9   10   2
  -0.0851064369   10   9   10   4
  0.0000000191   10   9   10   6
  0.7893608302   10   9   10   9
  1.5952887201   10   10   1   1
  -0.0000000259   10   10   2   1
  1.5082287692   10   10   2   2
  -0.0917714326   10   10   3   1
  -0.0000000250   10   10   3   2
  1.4948306668   10   10   3   3
  -0.1138183351   10   10   4   2
  -0.0000000249   10   10   4   3
  1.4967054904   10   10   4   4
  1.4879107053   10   10   5   5
  0.0215814121   10   10   6   1
  0.1266982010   10   10   6   3
  0.0000000255   10   10   6   4
  1.5053085043   10   10   6   6
  0.0000000234   10   10   7   5
  1.3996716108   10   10   7   7
  -0.0831176574   10   10   8   5
  0.0000000223   10   10   8   7
  1.3726466364   10   10   8   8
  -0.0324880099   10   10   9   2
  -0.1434648318   10   10   9   4
  0.0000000275   10   10   9   6
  1.4930759547   10   10   9   9
  -0.0081679566   10   10   10   1
  -0.0347892898   10   10   10   3
  0.1556185935   10   10   10   6
  -0.0000000300   10   10   10   9
  1.6555968302   10   10   10   10
  0.1129066771   11   1   5   2
  -0.2033175019   11   1   5   4
  -0.1142671848   11   1   7   1
  0.0957869415   11   1   7   3
  -0.1033759702   11   1   7   6
  -0.0942049527   11   1   8   2
  -0.0016056911   11   1   8   4
  0.0848758900   11   1   9   5
  -0.0790801639   11   1   9   8
  -0.0782084301   11   1   10   7
  0.2069836917   11   1   11   1
  0.1254664617   11   2   5   1
  -0.1240923139   11   2   5   3
  0.0796575833   11   2   6   5
  -0.0002564283   11   2   7   2
  0.2069062732   11   2   7   4
  -0.1240110998   11   2   8   1
  -0.0873491397   11   2   8   3
  0.1153038243   11   2   8   6
  -0.0201996092   11   2   9   7
  0.0734408653   11   2   10   5
  0.0002033345   11   2   10   8
  0.2103962120   11   2   11   2
  -0.1350346873   11   3   5   2
  0.0029288831   11   3   5   4
  0.1365679579   11   3   7   1
  0.1314030141   11   3   7   3
  -0.0724920865   11   3   7   6
  -0.1346345141   11   3   8   2
  -0.2147033323   11   3   8   4
  -0.0548292381   11   3   9   5
  0.0011845655   11   3   9   8
  0.0022112752   11   3   10   7
  -0.0003544273   11   3   11   1
  0.2258920242   11   3   11   3
  -0.2795279496   11   4   5   1
  0.0041631989   11   4   5   3
  -0.0050503263   11   4   6   5
  0.2762659492   11   4   7   2
  -0.0038633598   11   4   7   4
  -0.0007199528   11   4   8   1
  -0.2778352770   11   4   8   3
  0.0711420420   11   4   8   6
  0.0713696823   11   4   9   7
  -0.0709175369   11   4   10   5
  -0.0004371278   11   4   10   8
  0.0106693177   11   4   11   2
  0.3423920045   11   4   11   4
  0.2039647423   11   5   2   1
  -0.1122177119   11   5   3   2
  -0.3129235973   11   5   4   1
  0.0152395965   11   5   4   3
  0.1817802436   11   5   6   2
  -0.0396060517   11   5   6   4
  -0.2173315130   11   5   7   5
  0.1221453228   11   5   8   7
  0.1185769578   11   5   9   1
  -0.1346295100   11   5   9   3
  0.0884218643   11   5   9   6
  0.1249576092   11   5   10   2
  -0.2133999883   11   5   10   4
  0.0373774556   11   5   10   9
  0.3391534624   11   5   11   5
  0.1216320628   11   6   5   2
  -0.0051732408   11   6   5   4
  -0.1229016710   11   6   7   1
  -0.1192563506   11   6   7   3
  0.0036194381   11   6   7   6
  0.1249208256   11   6   8   2
  0.1211930135   11   6   8   4
  0.0250491937   11   6   9   5
  0.0660209245   11   6   9   8
  -0.0681875354   11   6   10   7
  -0.0070439567   11   6   11   1
  -0.1238229096   11   6   11   3
  0.1831900779   11   6   11   6
  -0.3192799051   11   7   1   1
  -0.0528816834   11   7   2   2
  0.2663287812   11   7   3   1
  0.0449894310   11   7   3   3
  0.3617367342   11   7   4   2
  -0.0742941859   11   7   4   4
  -0.3315055627   11   7   5   5
  -0.0926693888   11   7   6   1
  -0.2343538786   11   7   6   3
  -0.0498947970   11   7   6   6
  -0.0592540370   11   7   7   7
  0.2713748704   11   7   8   5
  0.0620474611   11   7   8   8
  -0.0438536438   11   7   9   2
  0.2495507830   11   7   9   4
  0.0959195559   11   7   9   9
  -0.1011145470   11   7   10   1
  -0.0064867329   11   7   10   3
  -0.2977947409   11   7   10   6
  -0.0000000115   11   7   10   9
  -0.1002739190   11   7   10   10
  0.3914140573   11   7   11   7
  -0.3852695453   11   8   2   1
  -0.3713864842   11   8   3   2
  0.0125558140   11   8   4   1
  -0.4524991007   11   8   4   3
  0.0610225993   11   8   6   2
  0.3578697585   11   8   6   4
  0.3903190923   11   8   7   5
  0.3800551374   11   8   8   7
  -0.0535931779   11   8   9   1
  0.0254953800   11   8   9   3
  0.3474665644   11   8   9   6
  -0.0000000105   11   8   9   9
  0.0070771031   11   8   10   2
  0.0268998191   11   8   10   4
  -0.4472524470   11   8   10   9
  0.0000000217   11   8   10   10
  -0.0121582493   11   8   11   5
  0.5554801834   11   8   11   8
  0.1110232835   11   9   5   1
  -0.0851732046   11   9   5   3
  0.0278497668   11   9   6   5
  -0.0237933213   11   9   7   2
  0.1062184638   11   9   7   4
  -0.0874687938   11   9   8   1
  0.0030085220   11   9   8   3
  0.1014673428   11   9   8   6
  0.0314262870   11   9   9   7
  0.0051210258   11   9   10   5
  -0.0690153921   11   9   10   8
  0.1039743653   11   9   11   2
  -0.0040175994   11   9   11   4
  0.1495532246   11   9   11   9
  0.0906287261   11   10   5   2
  -0.0935822268   11   10   5   4
  -0.0902505009   11   10   7   1
  0.0011724188   11   10   7   3
  -0.0911658296   11   10   7   6
  0.0007637485   11   10   8   2
  0.0005048124   11   10   8   4
  0.0056075562   11   10   9   5
  -0.0884030019   11   10   9   8
  -0.0088503127   11   10   10   7
  0.0839985799   11   10   11   1
  -0.0025635490   11   10   11   3
  0.0012062003   11   10   11   6
  0.1174705846   11   10   11   10
  1.4356799891   11   11   1   1
  1.3867044888   11   11   2   2
  -0.0484118839   11   11   3   1
  1.3839077449   11   11   3   3
  -0.0511561627   11   11   4   2
  1.4418968900   11   11   4   4
  1.4522720401   11   11   5   5
  0.0074000243   11   11   6   1
  -0.0095774219   11   11   6   3
  1.3436392181   11   11   6   6
  1.4064930182   11   11   7   7
  -0.0461289896   11   11   8   5
  1.4628354193   11   11   8   8
  0.0521991112   11   11   9   2
  -0.0807222500   11   11   9   4
  1.3045785363   11   11   9   9
  0.0596750478   11   11   10   1
  -0.0230465339   11   11   10   3
  0.0833071890   11   11   10   6
  1.3523339986   11   11   10   10
  0.0109693514   11   11   11   7
  1.5037144457   11   11   11   11
  -0.0010396025   12   1   5   1
  -0.0991764113   12   1   5   3
  -0.1750167554   12   1   6   5
  0.1019204910   12   1   7   2
  -0.0868247380   12   1   7   4
  -0.1016253812   12   1   8   1
  0.0859802495   12   1   8   3
  -0.0097306156   12   1   8   6
  -0.0737276356   12   1   9   7
  -0.0671448607   12   1   10   5
  0.0745879656   12   1   10   8
  -0.0867599845   12   1   11   2
  -0.0167304851   12   1   11   4
  -0.0097714757   12   1   11   9
  0.1858966527   12   1   12   1
  -0.1105689159   12   2   5   2
  0.1087604952   12   2   5   4
  0.1119686674   12   2   7   1
  -0.0012587394   12   2   7   3
  0.1849978922   12   2   7   6
  -0.0008386143   12   2   8   2
  0.0945187867   12   2   8   4
  0.0571359857   12   2   9   5
  0.0931516792   12   2   9   8
  0.0005960659   12   2   10   7
  -0.1103131323   12   2   11   1
  -0.0997567630   12   2   11   3
  0.0037913722   12   2   11   6
  -0.0755078907   12   2   11   10
  0.2161793109   12   2   12   2
  -0.1214876914   12   3   5   1
  0.1203066514   12   3   5   3
  -0.0030206082   12   3   6   5
  -0.0001773447   12   3   7   2
  -0.1278297681   12   3   7   4
  0.1208294485   12   3   8   1
  0.0152935184   12   3   8   3
  -0.1856886454   12   3   8   6
  -0.0650277678   12   3   9   7
  0.0602050296   12   3   10   5
  -0.0026930868   12   3   10   8
  -0.1393806023   12   3   11   2
  -0.0770064665   12   3   11   4
  -0.0979870987   12   3   11   9
  0.0265857017   12   3   12   1
  0.1927668764   12   3   12   3
  0.1300093494   12   4   5   2
  0.0055509802   12   4   5   4
  -0.1316044107   12   4   7   1
  -0.1384857526   12   4   7   3
  -0.0005912441   12   4   7   6
  0.1448795723   12   4   8   2
  0.1250875739   12   4   8   4
  0.0118037805   12   4   9   5
  0.0595455378   12   4   9   8
  -0.0557482050   12   4   10   7
  -0.0182501044   12   4   11   1
  -0.1289234107   12   4   11   3
  0.1864399703   12   4   11   6
  0.0037585163   12   4   11   10
  0.0002601215   12   4   12   2
  0.1940040178   12   4   12   4
  -0.0088523128   12   5   1   1
  -0.1575368545   12   5   2   2
  -0.1483950431   12   5   3   1
  0.0917087417   12   5   3   3
  0.0996287731   12   5   4   2
  -0.0189213379   12   5   4   4
  -0.0067407527   12   5   5   5
  -0.2392468417   12   5   6   1
  0.0127980475   12   5   6   3
  0.0359331833   12   5   6   6
  -0.1740700170   12   5   7   7
  -0.1667741895   12   5   8   5
  0.1091987253   12   5   8   8
  0.1064831109   12   5   9   2
  0.0559978074   12   5   9   4
  -0.0267743395   12   5   9   9
  -0.0932929382   12   5   10   1
  0.1478213122   12   5   10   3
  0.0154285016   12   5   10   6
  -0.0166896445   12   5   10   10
  0.1177024085   12   5   11   7
  0.0627544794   12   5   11   11