 &FCI NORB= 33,NELEC= ,MS0= ,
  ORBSYM=1,3,1,3,1,1,3,3,1,1,3,1,1,3,1,3,1,3,1,3,1,3,1,1,3,1,3,1,3,1,1,3,1,
  ISYM=1,
 /
  -48.6593826809131613231329538   1   1   0   0
  -45.0350960740930617021149374   2   2   0   0
  -45.0350960473249770643633383   3   3   0   0
  -1.2158392020546664458180430   4   2   0   0
  0.0000101604720895154265747   4   3   0   0
  -42.7994750409789901368640130   4   4   0   0
  0.0000002666348194180212516   5   1   0   0
  -0.0000101604720524894887035   5   2   0   0
  -1.2158391965894306263606950   5   3   0   0
  -42.7994749440100008541776333   5   5   0   0
  -3.5579507953721001278779568   6   1   0   0
  -0.0000000949363465063690626   6   3   0   0
  0.0000000628413557302032189   6   5   0   0
  -43.1806229641114143191771291   6   6   0   0
  0.0000000234442169350052969   7   2   0   0
  -40.2234197884809958623009152   7   7   0   0
  -3.6165675872892686371073978   8   2   0   0
  0.0000297430505596385508227   8   3   0   0
  0.5685609151725382615083504   8   4   0   0
  0.0000000754174338535307243   8   5   0   0
  -0.0000000450242742528262402   8   7   0   0
  -41.4651794532306681162481254   8   8   0   0
  -0.0000001554084882726680661   9   1   0   0
  -0.0000297430502168016808184   9   2   0   0
  -3.6165675471547027441943101   9   3   0   0
  -0.0000000754174425687814676   9   4   0   0
  0.5685608755790444446276410   9   5   0   0
  -0.0000002427806425897571785   9   6   0   0
  -41.4651794972386085191828897   9   9   0   0
  -1.3759269560922768871336075   10   1   0   0
  0.0000003885979569795416921   10   3   0   0
  0.0000000882290717707512329   10   5   0   0
  -2.5142570817398000038167538   10   6   0   0
  -0.0000000868902850226227486   10   9   0   0
  -42.1021022592364246861507127   10   10   0   0
  -0.9158824618911388659725503   11   2   0   0
  0.0000074446982603615374785   11   3   0   0
  2.7014830091606647499702376   11   4   0   0
  0.0000006167852749650037936   11   5   0   0
  0.4710401516918036879388865   11   8   0   0
  0.0000000450631967296999392   11   9   0   0
  -40.1261549801549790572607890   11   11   0   0
  -0.0000000414890671818213264   12   1   0   0
  -0.0000074446984062448429142   12   2   0   0
  -0.9158824782430943223232589   12   3   0   0
  -0.0000006167852681926433434   12   4   0   0
  2.7014830046377014127756411   12   5   0   0
  0.0000003019323779884786063   12   6   0   0
  -0.0000000450631968407222416   12   8   0   0
  0.4710401828048353944922155   12   9   0   0
  -0.0000000858426028593761714   12   10   0   0
  -40.1261549444213585502438946   12   12   0   0
  -0.6141972216373343673723184   13   1   0   0
  -0.0000000114393998718043122   13   3   0   0
  -0.0000003080421708823166682   13   5   0   0
  3.8177556782727024575763153   13   6   0   0
  -0.0000002366951814547491040   13   9   0   0
  -1.9443059706001770692296304   13   10   0   0
  -0.0000000280388203210968356   13   12   0   0
  -41.5467239827539245311527338   13   13   0   0
  -0.9110480716342947982155920   14   2   0   0
  0.0000080194684100587387832   14   3   0   0
  -1.4005677439125725491919638   14   4   0   0
  0.0000006242444782200706754   14   5   0   0
  -0.0000000199358760897770560   14   7   0   0
  -3.7839115150462534487019184   14   8   0   0
  0.0000021884417351625273795   14   9   0   0
  0.4216513310169850425879190   14   11   0   0
  -0.0000002842021837312636023   14   12   0   0
  -41.4622396202922303132254456   14   14   0   0
  0.0000000234638518059604451   15   1   0   0
  0.0000080194682781642434577   15   2   0   0
  0.9110480561592356751887678   15   3   0   0
  0.0000006242444756665577188   15   4   0   0
  1.4005677293370000224825844   15   5   0   0
  0.0000000882010275926603526   15   6   0   0
  0.0000021884417167328251708   15   8   0   0
  3.7839114933636914805958895   15   9   0   0
  -0.0000004903316861981643626   15   10   0   0
  -0.0000002842021966653618392   15   11   0   0
  -0.4216513399242411974654487   15   12   0   0
  -41.4622396917018605222438055   15   15   0   0
  0.0000000522924912586599569   16   4   0   0
  -1.5324688318450643276236178   16   7   0   0
  -0.0000000227772551393299066   16   14   0   0
  -35.5220116296830283886265534   16   16   0   0
  0.0000000156537908711784635   17   1   0   0
  0.0000021573312418282641900   17   2   0   0
  0.2551514291079165497322379   17   3   0   0
  -0.0000001022238783204842960   17   4   0   0
  -1.0394407383153532187236578   17   5   0   0
  -0.0000000698907825502637081   17   6   0   0
  -0.0000003123630084034267895   17   8   0   0
  -1.3522718748312196890282166   17   9   0   0
  0.0000001159491830535208656   17   10   0   0
  0.0000010388934248151127093   17   11   0   0
  3.1803639356578026209376731   17   12   0   0
  -0.0000000281358678994036993   17   13   0   0
  0.0000003132277866663146781   17   14   0   0
  0.9017302624159082569121892   17   15   0   0
  -38.4748394701929470329559990   17   17   0   0
  0.2551514888585244555940790   18   2   0   0
  -0.0000021573317205147990450   18   3   0   0
  -1.0394407233539331159022368   18   4   0   0
  0.0000001022238769743388787   18   5   0   0
  -0.0000000335265048817555678   18   7   0   0
  -1.3522719009225818709296618   18   8   0   0
  0.0000003123630243490049807   18   9   0   0
  3.1803639150055542650363805   18   11   0   0
  -0.0000010388934233024338383   18   12   0   0
  -0.9017302998001774927416818   18   14   0   0
  0.0000003132278200979055072   18   15   0   0
  -0.0000000459527234286307219   18   16   0   0
  -38.4748395036088197684875922   18   18   0   0
  0.0000000125676835049937097   19   1   0   0
  0.0000025513640752317101601   19   2   0   0
  0.3072693418162472100974014   19   3   0   0
  -0.0363305591884311440686872   19   5   0   0
  -0.0000000272268949608189814   19   6   0   0
  -0.0000000724817121877663340   19   8   0   0
  -0.9147451044946758313969326   19   9   0   0
  0.0000001024783626846215157   19   10   0   0
  -0.0000004047783483951405969   19   11   0   0
  -2.3142827879562672954705249   19   12   0   0
  0.0000000336810788148511620   19   13   0   0
  0.0000010254949364130183653   19   14   0   0
  2.0546170736957645175380094   19   15   0   0
  -0.1986771751193526225343078   19   17   0   0
  0.0000000301500895083517406   19   18   0   0
  -38.8323842756823509603236744   19   19   0   0
  0.3072693867742735118753217   20   2   0   0
  -0.0000025513644245078737072   20   3   0   0
  -0.0363305483270496276659856   20   4   0   0
  -0.9147450972728079499063369   20   8   0   0
  0.0000000724817131869670561   20   9   0   0
  -2.3142828040905203401678136   20   11   0   0
  0.0000004047783518923431245   20   12   0   0
  -2.0546171127030206093877496   20   14   0   0
  0.0000010254949471821817042   20   15   0   0
  -0.0000000301501003191484429   20   17   0   0
  -0.1986771499703843812945081   20   18   0   0
  -38.8323842804709968845600088   20   20   0   0
  0.0000000146658801492005608   21   1   0   0
  0.0000008138880925878666517   21   2   0   0
  0.0755049113290943707532676   21   3   0   0
  0.0000013658243412928428029   21   4   0   0
  0.5638037701379050581351748   21   5   0   0
  0.0000000316410393441657334   21   6   0   0
  -0.0000029918941490958417262   21   8   0   0
  -1.1709207548559528166975952   21   9   0   0
  0.0000001055341555811217802   21   10   0   0
  0.0000015263913588636768282   21   11   0   0
  0.5758162033567023607716351   21   12   0   0
  0.0000000161115264463163044   21   13   0   0
  0.0000022517456719217676664   21   14   0   0
  -1.1390808985700968669618760   21   15   0   0
  2.1554714658670661719952477   21   17   0   0
  0.0000050096871887089777786   21   18   0   0
  0.2790789820983756719385838   21   19   0   0
  0.0000006909791425702138667   21   20   0   0
  -36.1264859447895503308245679   21   21   0   0
  -0.0755048999121771258202784   22   2   0   0
  0.0000008138880357444477909   22   3   0   0
  -0.5638037302335502376493537   22   4   0   0
  0.0000013658244644165762338   22   5   0   0
  -0.0000000108186998796119362   22   7   0   0
  1.1709207639678087531365236   22   8   0   0
  -0.0000029918941166773294071   22   9   0   0
  -0.5758161713119673841276835   22   11   0   0
  0.0000015263914386887122987   22   12   0   0
  -1.1390809075110022163812573   22   14   0   0
  -0.0000022517456739201691107   22   15   0   0
  0.0000050096871749977234245   22   17   0   0
  -2.1554714702104864620935132   22   18   0   0
  0.0000006909790543074834090   22   19   0   0
  -0.2790790137440658513767744   22   20   0   0
  -36.1264859196950354203181632   22   22   0   0
  -0.0808272275599500322762481   23   1   0   0
  0.0000000116410318051762829   23   3   0   0
  0.1605021032660822744020379   23   6   0   0
  0.0000000350776689916898476   23   9   0   0
  0.7584644655788785883032688   23   10   0   0
  -0.0000000172174775547873082   23   12   0   0
  -1.6343068599446182176393449   23   13   0   0
  -0.0000000271284026354123853   23   15   0   0
  0.0000000611311002374215207   23   17   0   0
  0.0000000115074887396815484   23   19   0   0
  -0.0000000319980992813384546   23   21   0   0
  -34.8082041269443536180006049   23   23   0   0
  -0.3288482482376112181476913   24   1   0   0
  -0.0000000314871905215952097   24   5   0   0
  0.8851958069028708075975942   24   6   0   0
  0.0000002931902690628263031   24   9   0   0
  2.5613057178395415292015969   24   10   0   0
  0.6461480911516950254025460   24   13   0   0
  -0.0000000109809361048540666   24   15   0   0
  -0.0000000240732673656429697   24   17   0   0
  -0.0000000801348823409320232   24   19   0   0
  0.0000000410512455695233314   24   21   0   0
  -2.3115171834323096078378512   24   23   0   0
  -37.1385560322335948058025679   24   24   0   0
  -0.0000000297326840592831320   25   4   0   0
  -2.7769089505814412710549277   25   7   0   0
  0.0000000343398373340062531   25   8   0   0
  1.3548425265430235064911813   25   16   0   0
  0.0000000215972752629506944   25   18   0   0
  -0.0000000328272416882312640   25   20   0   0
  0.0000000143943274096214405   25   22   0   0
  -34.7005856714587466171906271   25   25   0   0
  0.0000033498129430320489064   26   2   0   0
  0.4424240548689994390052505   26   3   0   0
  -0.0000006527045841586698316   26   4   0   0
  0.8311973595084098942464834   26   5   0   0
  0.0000000593907992785247529   26   6   0   0
  0.0000007396717891516857435   26   8   0   0
  -1.1334019975851818973211493   26   9   0   0
  0.0000001056710563496210398   26   10   0   0
  -0.0000004087188840706801329   26   11   0   0
  0.7338590649108314156734423   26   12   0   0
  0.0000000150505978790960171   26   13   0   0
  0.0000007882310421036820003   26   14   0   0
  0.6403351355978755821141135   26   15   0   0
  0.4197242667905605184586193   26   17   0   0
  -0.0000003708697806914518225   26   18   0   0
  -3.7497831765547475768585173   26   19   0   0
  0.0000027442755137219165817   26   20   0   0
  -2.1432222866164396535282322   26   21   0   0
  -0.0000068749762978104200783   26   22   0   0
  -0.0000000368635131309247299   26   23   0   0
  0.0000000213018688799415656   26   24   0   0
  -34.8776277416062256975237688   26   26   0   0
  0.4424240469694671329392577   27   2   0   0
  -0.0000033498128579889652201   27   3   0   0
  0.8311973443311961862178805   27   4   0   0
  0.0000006527045689486143942   27   5   0   0
  0.0000000333507384480177366   27   7   0   0
  -1.1334019787335121165483542   27   8   0   0
  -0.0000007396717907059979780   27   9   0   0
  0.7338590786368006657625074   27   11   0   0
  0.0000004087188820722786886   27   12   0   0
  -0.6403351314251630732599097   27   14   0   0
  0.0000007882310328888308959   27   15   0   0
  0.0000003708697577653463640   27   17   0   0
  0.4197242921360155865073693   27   18   0   0
  -0.0000027442754431117322156   27   19   0   0
  -3.7497831899406044442457642   27   20   0   0
  -0.0000068749763045827805286   27   21   0   0
  2.1432222806261655989601422   27   22   0   0
  -0.0000000291533432473933562   27   25   0   0
  -34.8776276834897345224817400   27   27   0   0
  0.0000000116658011306558507   28   1   0   0
  -0.0000026634816479020884117   28   2   0   0
  -0.3456356068376575940703788   28   3   0   0
  0.0000010956318635679807016   28   4   0   0
  -1.6837304750731971747512716   28   5   0   0
  -0.0000001366117810541744859   28   6   0   0
  -0.0000002727861185825020129   28   8   0   0
  0.5265422734591465037112812   28   9   0   0
  -0.0000000898236450219691562   28   10   0   0
  0.0000003456581925687096657   28   11   0   0
  -0.8183132097181368136418200   28   12   0   0
  -0.0000000174150410758855401   28   13   0   0
  -0.0000004428471038209202959   28   14   0   0
  -0.4039009353344771291460802   28   15   0   0
  0.6101859206306009530962342   28   17   0   0
  -0.0000004570670663478493267   28   18   0   0
  -0.8694642641213808920142014   28   19   0   0
  0.0000005193377611290017626   28   20   0   0
  -2.8414697263417409978103478   28   21   0   0
  -0.0000087325023254702927034   28   22   0   0
  -0.0000001335565770199664826   28   23   0   0
  0.0000000949632782965004196   28   24   0   0
  0.8497218923763025788531422   28   26   0   0
  0.0000001143226910915728922   28   27   0   0
  -34.5727653660853562200827582   28   28   0   0
  -0.3456356064885638401662504   29   2   0   0
  0.0000026634816508441794269   29   3   0   0
  -1.6837304576179534798541226   29   4   0   0
  -0.0000010956318849952850769   29   5   0   0
  -0.0000000264298690114685055   29   7   0   0
  0.5265422571563098674829462   29   8   0   0
  0.0000002727861334594905429   29   9   0   0
  -0.8183131762770199379986025   29   11   0   0
  -0.0000003456582119421014454   29   12   0   0
  0.4039009443605908189489639   29   14   0   0
  -0.0000004428471088169239067   29   15   0   0
  -0.0000000389128268691703154   29   16   0   0
  0.0000004570670702613854885   29   17   0   0
  0.6101859014063526487348099   29   18   0   0
  -0.0000005193377585754888059   29   19   0   0
  -0.8694642608004630179863170   29   20   0   0
  -0.0000087325023943596313813   29   21   0   0
  2.8414697589584907433390981   29   22   0   0
  -0.0000000269597784157122726   29   25   0   0
  -0.0000001143227635891364002   29   26   0   0
  0.8497219280620625925237732   29   27   0   0
  -34.5727654540135489469321328   29   29   0   0
  -0.2833823594207384166665520   30   1   0   0
  -0.0000000126599038474672909   30   3   0   0
  -0.0000001130727578235735109   30   5   0   0
  1.0088571973715865226495225   30   6   0   0
  0.0000000548494010210731631   30   9   0   0
  0.4129275494522176570555416   30   10   0   0
  0.8568522425990349189461881   30   13   0   0
  -0.0000000327206474137753389   30   15   0   0
  0.0000000181122719322690529   30   17   0   0
  -0.0000000140932095993306916   30   19   0   0
  -0.0000000985340897763364865   30   21   0   0
  3.6708783575453001191135627   30   23   0   0
  -2.3757683353921925650809044   30   24   0   0
  0.0000000282401217965855267   30   26   0   0
  -0.0000000501726063473206807   30   28   0   0
  -33.8505222581499864986653847   30   30   0   0
  -0.0000097665666555224461831   31   2   0   0
  -1.1716848614403561068542103   31   3   0   0
  -0.1315976658869883186842031   31   5   0   0
  0.0000000664962261920365449   31   8   0   0
  0.5970262914741357729297988   31   9   0   0
  -0.0000000576507026006645162   31   10   0   0
  0.0000000507498027491060100   31   11   0   0
  0.2451131144620052881855088   31   12   0   0
  -0.0000001402784010062774200   31   14   0   0
  -0.3003979095434174406697991   31   15   0   0
  -0.1804561586086029234543560   31   17   0   0
  0.0000000215847438325700303   31   18   0   0
  -0.7701276818659581469006525   31   19   0   0
  -0.0000000247534361341728015   31   20   0   0
  0.4734624788752398449886982   31   21   0   0
  0.0000011570402888572139943   31   22   0   0
  0.0000000473104401210733272   31   23   0   0
  -3.3684024498076117204448110   31   26   0   0
  -0.0000025734295646673288616   31   27   0   0
  -1.6623711025922147666022965   31   28   0   0
  -0.0000010463790900694380781   31   29   0   0
  -0.0000000388604379786272602   31   30   0   0
  -34.2184505629898154666079790   31   31   0   0
  1.1716848660773830914649807   32   2   0   0
  -0.0000097665666812241092032   32   3   0   0
  0.1315976631846429434347101   32   4   0   0
  -0.5970262861570252432841244   32   8   0   0
  0.0000000664962359619991616   32   9   0   0
  -0.2451131385743681723177190   32   11   0   0
  0.0000000507498083557322843   32   12   0   0
  -0.3003979490650940942231273   32   14   0   0
  0.0000001402784217674479805   32   15   0   0
  0.0000000215847648435407713   32   17   0   0
  0.1804562036344993236625101   32   18   0   0
  -0.0000000247534513997393901   32   19   0   0
  0.7701276726831053354160872   32   20   0   0
  -0.0000011570402548843894408   32   21   0   0
  0.4734624571666682379955660   32   22   0   0
  -0.0000000298098465477110557   32   25   0   0
  -0.0000025734295926449490821   32   26   0   0
  3.3684025031873834343798535   32   27   0   0
  -0.0000010463791089987406480   32   28   0   0
  1.6623711038399415773625378   32   29   0   0
  -34.2184506003214607972040540   32   32   0   0
  -0.9661809469950781714686627   33   1   0   0
  -0.0000000195508777639519238   33   5   0   0
  0.3391548770338303486759912   33   6   0   0
  0.0000000363554837901070016   33   9   0   0
  0.2746181013401753912006598   33   10   0   0
  0.1636435274516234716912777   33   13   0   0
  -0.0000000146472474565895183   33   15   0   0
  -0.0000000211923348800158173   33   17   0   0
  -0.0000000302599767881828186   33   19   0   0
  0.0000000279541878256406306   33   21   0   0
  0.4480168963238253532210820   33   23   0   0
  1.2646068809462329696202687   33   24   0   0
  -0.0000000156525356009851180   33   26   0   0
  -0.0000000514372955479069915   33   28   0   0
  3.1873872872367199349241673   33   30   0   0
  -36.2585671542309171400120249   33   33   0   0
  1.8029012659   1   1   1   1
  0.4630659487   2   1   2   1
  1.5392514946   2   2   1   1
  0.0000041552   2   2   2   1
  1.6840510426   2   2   2   2
  0.1678699334   3   1   2   2
  0.4630659453   3   1   3   1
  0.1678699332   3   2   2   1
  -0.0000041552   3   2   3   1
  0.1983651444   3   2   3   2
  1.5392514909   3   3   1   1
  -0.0000041552   3   3   2   1
  1.2873207602   3   3   2   2
  -0.1678699325   3   3   3   1
  1.6840510429   3   3   3   3
  0.0740270294   4   1   2   1
  -0.0000025260   4   1   2   2
  -0.0000006186   4   1   3   1
  -0.1540645320   4   1   3   2
  0.0000025260   4   1   3   3
  0.2500573306   4   1   4   1
  0.1153560435   4   2   1   1
  -0.0000047573   4   2   2   1
  -0.0460948188   4   2   2   2
  -0.2901544844   4   2   3   1
  0.0000005534   4   2   3   2
  0.0863480773   4   2   3   3
  -0.0000008014   4   2   4   1
  0.3637730229   4   2   4   2
  -0.0000009640   4   3   1   1
  -0.2901544848   4   3   2   1
  -0.0000007216   4   3   2   2
  0.0000047573   4   3   3   1
  -0.0662214467   4   3   3   2
  0.0000003852   4   3   3   3
  -0.0996964768   4   3   4   1
  -0.0000002032   4   3   4   2
  0.3394590983   4   3   4   3
  1.4635324697   4   4   1   1
  -0.0000010064   4   4   2   1
  1.4099475709   4   4   2   2
  -0.1251986039   4   4   3   1
  0.0000001845   4   4   3   2
  1.4320256420   4   4   3   3
  0.0000000202   4   4   4   1
  0.1702032032   4   4   4   2
  -0.0000014223   4   4   4   3
  1.6170949595   4   4   4   4
  -0.0000000253   5   1   1   1
  0.0000006186   5   1   2   1
  -0.1540645329   5   1   2   2
  0.0740270281   5   1   3   1
  0.0000025260   5   1   3   2
  0.1540645245   5   1   3   3
  -0.0996964836   5   1   4   2
  0.0000008014   5   1   4   3
  -0.0634317200   5   1   4   4
  0.2500573267   5   1   5   1
  0.0000009640   5   2   1   1
  -0.2901544673   5   2   2   1
  -0.0000003852   5   2   2   2
  0.0000047573   5   2   3   1
  -0.0662214340   5   2   3   2
  0.0000007216   5   2   3   3
  -0.0996964818   5   2   4   1
  0.0000002032   5   2   4   2
  0.1224365409   5   2   4   3
  0.0000001929   5   2   4   4
  0.0000008014   5   2   5   1
  0.3394590690   5   2   5   2
  0.1153560430   5   3   1   1
  0.0000047573   5   3   2   1
  0.0863480896   5   3   2   2
  0.2901544940   5   3   3   1
  -0.0000005534   5   3   3   2
  -0.0460948298   5   3   3   3
  0.0000008014   5   3   4   1
  -0.0981226384   5   3   4   2
  -0.0000002032   5   3   4   3
  0.0230868290   5   3   4   4
  0.0996964581   5   3   5   1
  0.0000002032   5   3   5   2
  0.3637730424   5   3   5   3
  -0.1251986155   5   4   2   1
  -0.0000001845   5   4   2   2
  0.0000010064   5   4   3   1
  -0.0110390450   5   4   3   2
  0.0000001845   5   4   3   3
  -0.0634317110   5   4   4   1
  0.0000006147   5   4   4   2
  0.0735581924   5   4   4   3
  -0.0000000202   5   4   5   1
  0.0735581912   5   4   5   2
  -0.0000006147   5   4   5   3
  0.1514125673   5   4   5   4
  1.4635324643   5   5   1   1
  0.0000010064   5   5   2   1
  1.4320256155   5   5   2   2
  0.1251985738   5   5   3   1
  -0.0000001845   5   5   3   2
  1.4099475893   5   5   3   3
  -0.0000000202   5   5   4   1
  0.0230868417   5   5   4   2
  -0.0000001929   5   5   4   3
  1.3142698465   5   5   4   4
  0.0634317231   5   5   5   1
  0.0000014223   5   5   5   2
  0.1702031866   5   5   5   3
  1.6170949364   5   5   5   5
  0.3304750182   6   1   1   1
  0.0674433474   6   1   2   2
  0.0674433654   6   1   3   3
  0.1184158670   6   1   4   2
  -0.0000009896   6   1   4   3
  0.0531636516   6   1   4   4
  0.0000009896   6   1   5   2
  0.1184158804   6   1   5   3
  0.0531636591   6   1   5   5
  0.3296998039   6   1   6   1
  -0.1751242189   6   2   2   1
  -0.0000039153   6   2   2   2
  -0.1581774162   6   2   3   2
  0.0000039153   6   2   3   3
  0.0925951420   6   2   4   1
  0.0000025492   6   2   4   2
  0.1554808481   6   2   4   3
  -0.0000000132   6   2   4   4
  0.0000007738   6   2   5   1
  0.1554808416   6   2   5   2
  -0.0000025492   6   2   5   3
  -0.0016370742   6   2   5   4
  0.0000000132   6   2   5   5
  0.2703859858   6   2   6   2
  -0.1581774049   6   3   2   2
  -0.1751241812   6   3   3   1
  0.0000039153   6   3   3   2
  0.1581774092   6   3   3   3
  -0.0000007738   6   3   4   1
  0.1554808339   6   3   4   2
  -0.0000025492   6   3   4   3
  -0.0016370836   6   3   4   4
  0.0925951546   6   3   5   1
  -0.0000025492   6   3   5   2
  -0.1554808339   6   3   5   3
  0.0000000132   6   3   5   4
  0.0016371172   6   3   5   5
  0.0000000152   6   3   6   1
  0.2703859415   6   3   6   3
  0.1860504033   6   4   2   1
  0.0000023810   6   4   2   2
  -0.0000015548   6   4   3   1
  0.1452231307   6   4   3   2
  -0.0000023810   6   4   3   3
  -0.0729713493   6   4   4   1
  -0.0000007505   6   4   4   2
  -0.0933602554   6   4   4   3
  0.0000000176   6   4   4   4
  -0.0933602469   6   4   5   2
  0.0000007505   6   4   5   3
  -0.0552429058   6   4   5   4
  -0.0000000176   6   4   5   5
  -0.1260800029   6   4   6   2
  0.0000010536   6   4   6   3
  0.2292658351   6   4   6   4
  0.0000015548   6   5   2   1
  0.1452231307   6   5   2   2
  0.1860504195   6   5   3   1
  -0.0000023810   6   5   3   2
  -0.1452231304   6   5   3   3
  -0.0933602603   6   5   4   2
  0.0000007505   6   5   4   3
  -0.0552429036   6   5   4   4
  -0.0729713396   6   5   5   1
  0.0000007505   6   5   5   2
  0.0933602816   6   5   5   3
  -0.0000000176   6   5   5   4
  0.0552428850   6   5   5   5
  -0.0000000143   6   5   6   1
  -0.0000010536   6   5   6   2
  -0.1260799897   6   5   6   3
  0.2292658497   6   5   6   5
  1.5295303809   6   6   1   1
  1.3906244519   6   6   2   2
  0.0000000281   6   6   3   1
  1.3906244065   6   6   3   3
  -0.0030517027   6   6   4   2
  0.0000000255   6   6   4   3
  1.3371574720   6   6   4   4
  -0.0000000245   6   6   5   1
  -0.0000000255   6   6   5   2
  -0.0030516751   6   6   5   3
  1.3371574853   6   6   5   5
  0.1759246541   6   6   6   1
  -0.0000000194   6   6   6   3
  0.0000000205   6   6   6   5
  1.5238993178   6   6   6   6
  0.0000010192   7   1   4   2
  0.1219630164   7   1   4   3
  -0.1219630153   7   1   5   2
  0.0000010192   7   1   5   3
  0.1371763381   7   1   7   1
  0.1219115404   7   2   2   2
  -0.0116650883   7   2   3   1
  -0.0000030176   7   2   3   2
  -0.1219115452   7   2   3   3
  0.0000014279   7   2   4   1
  0.0786597103   7   2   4   2
  -0.0000012897   7   2   4   3
  -0.0789578599   7   2   4   4
  -0.1708646978   7   2   5   1
  -0.0000012897   7   2   5   2
  -0.0786597088   7   2   5   3
  0.0000006347   7   2   5   4
  0.0789578367   7   2   5   5
  -0.0000000106   7   2   6   1
  -0.0188633424   7   2   6   3
  -0.0000011521   7   2   6   4
  0.1378682475   7   2   6   5
  0.0000000201   7   2   6   6
  0.2674149184   7   2   7   2
  0.0116650872   7   3   2   1
  -0.0000030176   7   3   2   2
  -0.1219115457   7   3   3   2
  0.0000030176   7   3   3   3
  0.1708646998   7   3   4   1
  -0.0000012897   7   3   4   2
  -0.0786597121   7   3   4   3
  0.0000006347   7   3   4   4
  0.0000014279   7   3   5   1
  -0.0786597115   7   3   5   2
  0.0000012897   7   3   5   3
  0.0789578704   7   3   5   4
  -0.0000006347   7   3   5   5
  0.0188633314   7   3   6   2
  -0.1378682378   7   3   6   4
  -0.0000011521   7   3   6   5
  0.2674149221   7   3   7   3
  0.0000025371   7   4   2   1
  0.1311582521   7   4   2   2
  0.3036018506   7   4   3   1
  -0.0000021504   7   4   3   2
  -0.1311582522   7   4   3   3
  -0.2337245450   7   4   4   2
  0.0000018789   7   4   4   3
  -0.0868765936   7   4   4   4
  0.0236651093   7   4   5   1
  0.0000018789   7   4   5   2
  0.2337245616   7   4   5   3
  -0.0000000276   7   4   5   4
  0.0868765788   7   4   5   5
  -0.0000018531   7   4   6   2
  -0.2217468095   7   4   6   3
  0.0930337438   7   4   6   5
  0.0000000140   7   4   6   6
  -0.0319709244   7   4   7   2
  0.0000002672   7   4   7   3
  0.3898272401   7   4   7   4
  -0.3036018511   7   5   2   1
  -0.0000021504   7   5   2   2
  0.0000025371   7   5   3   1
  -0.1311582514   7   5   3   2
  0.0000021504   7   5   3   3
  -0.0236651104   7   5   4   1
  0.0000018789   7   5   4   2
  0.2337245563   7   5   4   3
  -0.0000000276   7   5   4   4
  0.2337245174   7   5   5   2
  -0.0000018789   7   5   5   3
  0.0868765985   7   5   5   4
  0.0000000276   7   5   5   5
  0.2217468414   7   5   6   2
  -0.0000018531   7   5   6   3
  -0.0930337323   7   5   6   4
  0.0000000118   7   5   7   1
  -0.0000002672   7   5   7   2
  -0.0319709249   7   5   7   3
  0.3898272417   7   5   7   5
  -0.0000000191   7   6   2   1
  -0.0000010589   7   6   4   2
  -0.1267136494   7   6   4   3
  0.1267136797   7   6   5   2
  -0.0000010589   7   6   5   3
  0.0000000247   7   6   6   2
  -0.1444035606   7   6   7   1
  0.0000000115   7   6   7   5
  0.1998479380   7   6   7   6
  1.3337757538   7   7   1   1
  1.3967225218   7   7   2   2
  1.3967225241   7   7   3   3
  -0.0002236301   7   7   4   2
  1.4089768291   7   7   4   4
  -0.0002236309   7   7   5   3
  1.4089768275   7   7   5   5
  -0.0794905102   7   7   6   1
  1.3189173605   7   7   6   6
  1.4897003778   7   7   7   7
  0.1604770882   8   1   2   1
  0.0000011505   8   1   2   2
  -0.0000013198   8   1   3   1
  0.0696087708   8   1   3   2
  -0.0000011505   8   1   3   3
  0.0059372524   8   1   4   1
  -0.0000001444   8   1   4   2
  -0.0176701325   8   1   4   3
  0.0000000127   8   1   4   4
  -0.0176701378   8   1   5   2
  0.0000001444   8   1   5   3
  -0.0687307731   8   1   5   4
  -0.0000000127   8   1   5   5
  0.0834579364   8   1   6   2
  -0.0000006864   8   1   6   3
  0.0801326366   8   1   6   4
  0.0000000106   8   1   6   5
  -0.0000006766   8   1   7   2
  -0.0822718171   8   1   7   3
  0.0024577532   8   1   7   5
  0.2255097649   8   1   8   1
  0.2862709107   8   2   1   1
  0.0000012623   8   2   2   1
  0.1439539965   8   2   2   2
  0.0763707926   8   2   3   1
  -0.0000000666   8   2   3   2
  0.1277550338   8   2   3   3
  0.0000003095   8   2   4   1
  0.0169757544   8   2   4   2
  -0.0000011123   8   2   4   3
  0.0590300768   8   2   4   4
  0.0378722244   8   2   5   1
  0.0000011006   8   2   5   2
  0.1052545204   8   2   5   3
  -0.0000000417   8   2   5   4
  0.0688472327   8   2   5   5
  0.1884372059   8   2   6   1
  0.0000001053   8   2   6   2
  0.0063727764   8   2   6   3
  -0.0000006102   8   2   6   4
  -0.0746697735   8   2   6   5
  0.0825122242   8   2   6   6
  -0.0000006725   8   2   7   1
  -0.0746157415   8   2   7   2
  0.0000012333   8   2   7   3
  0.0658680137   8   2   7   4
  -0.0000005382   8   2   7   5
  0.0000007521   8   2   7   6
  -0.0218286942   8   2   7   7
  0.0000003195   8   2   8   1
  0.3040178207   8   2   8   2
  -0.0000023543   8   3   1   1
  0.0763707925   8   3   2   1
  -0.0000010507   8   3   2   2
  -0.0000012623   8   3   3   1
  0.0080994803   8   3   3   2
  -0.0000011839   8   3   3   3
  0.0378722385   8   3   4   1
  -0.0000011021   8   3   4   2
  -0.1165789487   8   3   4   3
  -0.0000004842   8   3   4   4
  -0.0000003095   8   3   5   1
  0.0283001827   8   3   5   2
  -0.0000011138   8   3   5   3
  -0.0049085683   8   3   5   4
  -0.0000005675   8   3   5   5
  -0.0000015497   8   3   6   1
  0.0063727713   8   3   6   2
  -0.0000001053   8   3   6   3
  -0.0746697719   8   3   6   4
  0.0000006102   8   3   6   5
  -0.0000006786   8   3   6   6
  -0.0817700454   8   3   7   1
  0.0000012333   8   3   7   2
  0.0746157417   8   3   7   3
  -0.0000005382   8   3   7   4
  -0.0658680195   8   3   7   5
  0.0914477716   8   3   7   6
  0.0000001795   8   3   7   7
  0.0384784176   8   3   8   1
  -0.0000012759   8   3   8   2
  0.1488711112   8   3   8   3
  -0.0183688527   8   4   1   1