 &FCI NORB= 10,NELEC= ,MS0= ,
  ORBSYM=1,2,3,1,4,2,3,1,4,3,
  ISYM=1,
 /
  -53.7146080399203071920055663   1   1   0   0
  -47.7653356411685550142465218   2   2   0   0
  -50.4154757373111976903601317   3   3   0   0
  -4.0610810702977460096008144   4   1   0   0
  -49.2513564291316470189485699   4   4   0   0
  -46.8037735062959612264421594   5   5   0   0
  -1.4496221486461542404811098   6   2   0   0
  -43.8375489268875355719501385   6   6   0   0
  -3.1979006297291325822129693   7   3   0   0
  -44.4595412441118895685576717   7   7   0   0
  1.4631310161624688781500936   8   1   0   0
  2.7757090453726682710566820   8   4   0   0
  -44.1786136502435056172544137   8   8   0   0
  -1.5099028532970386606848479   9   5   0   0
  -39.9991110617601464127801592   9   9   0   0
  -1.3970099942536879922272419   10   3   0   0
  -3.8355128719695570360670445   10   7   0   0
  -42.6695611378724208861967782   10   10   0   0
  6.3165343297   1   1   1   1
  1.1383846276   2   1   2   1
  5.4493820665   2   2   1   1
  5.6553371314   2   2   2   2
  1.1530699652   3   1   3   1
  0.4480760431   3   2   3   2
  6.1664033993   3   3   1   1
  5.3912166464   3   3   2   2
  6.1175548957   3   3   3   3
  0.7858481935   4   1   1   1
  -0.1598423207   4   1   2   2
  0.6781203580   4   1   3   3
  0.8410249759   4   1   4   1
  -1.2316584557   4   2   2   1
  1.4748391872   4   2   4   2
  0.1510768927   4   3   3   1
  0.1872640954   4   3   4   3
  6.0122494482   4   4   1   1
  5.6323843814   4   4   2   2
  5.7936443745   4   4   3   3
  0.3879105858   4   4   4   1
  6.0593392776   4   4   4   4
  -0.4786554584   5   1   3   2
  0.5172789022   5   1   5   1
  -0.9195130376   5   2   3   1
  0.0362696817   5   2   4   3
  0.8799717660   5   2   5   2
  -1.1623049859   5   3   2   1
  1.1126792718   5   3   4   2
  1.3342297416   5   3   5   3
  0.2103600637   5   4   3   2
  -0.2059609370   5   4   5   1
  0.1578080495   5   4   5   4
  5.7814730508   5   5   1   1
  5.4427914500   5   5   2   2
  5.8097030310   5   5   3   3
  0.2821116689   5   5   4   1
  5.5601069365   5   5   4   4
  5.6962561400   5   5   5   5
  0.1229031300   6   1   2   1
  0.0656972785   6   1   4   2
  -0.3277799914   6   1   5   3
  0.2907097362   6   1   6   1
  0.3416315695   6   2   1   1
  -0.2186518701   6   2   2   2
  0.4305090084   6   2   3   3
  0.4546508103   6   2   4   1
  -0.0743538913   6   2   4   4
  0.2607464339   6   2   5   5
  0.4931708560   6   2   6   2
  0.3639236675   6   3   3   2
  -0.4214144602   6   3   5   1
  0.0680433485   6   3   5   4
  0.4745742893   6   3   6   3
  0.7582535113   6   4   2   1
  -0.9123975558   6   4   4   2
  -0.6804915701   6   4   5   3
  -0.0466365097   6   4   6   1
  0.5645723247   6   4   6   4
  -0.8800186645   6   5   3   1
  -0.1445749887   6   5   4   3
  0.6743698059   6   5   5   2
  0.8514281945   6   5   6   5
  5.7814730508   6   6   1   1
  5.4427914500   6   6   2   2
  5.8097030310   6   6   3   3
  0.2821116689   6   6   4   1
  5.5601069365   6   6   4   4
  5.6962561400   6   6   5   5
  0.2607464339   6   6   6   2
  5.6962561400   6   6   6   6
  0.2332352686   7   1   3   1
  0.2494520234   7   1   4   3
  0.0188831151   7   1   5   2
  -0.2162667518   7   1   6   5
  0.3332840084   7   1   7   1
  -0.3244080751   7   2   3   2
  0.3159842730   7   2   5   1
  -0.2485269768   7   2   5   4
  -0.0959455082   7   2   6   3
  0.3916798220   7   2   7   2
  0.5956643360   7   3   1   1
  -0.1249156133   7   3   2   2
  0.5174258475   7   3   3   3
  0.6397301277   7   3   4   1
  0.2879119559   7   3   4   4
  0.2173158927   7   3   5   5
  0.3520634165   7   3   6   2
  0.2173158927   7   3   6   6
  0.4867710615   7   3   7   3
  0.8073564283   7   4   3   1
  0.0431296444   7   4   4   3
  -0.7024639480   7   4   5   2
  -0.4305357248   7   4   6   5
  0.0814175068   7   4   7   1
  0.7634171976   7   4   7   4
  0.7582535113   7   5   2   1
  -0.9123975558   7   5   4   2
  -0.6804915701   7   5   5   3
  -0.0466365097   7   5   6   1
  0.5645723247   7   5   6   4
  0.5645723247   7   5   7   5
  0.2103600637   7   6   3   2
  -0.2059609370   7   6   5   1
  0.1578080495   7   6   5   4
  0.0680433485   7   6   6   3
  -0.2485269768   7   6   7   2
  0.1578080495   7   6   7   6
  6.0122494482   7   7   1   1
  5.6323843814   7   7   2   2
  5.7936443745   7   7   3   3
  0.3879105858   7   7   4   1
  6.0593392776   7   7   4   4
  5.5601069365   7   7   5   5
  -0.0743538913   7   7   6   2
  5.5601069365   7   7   6   6
  0.2879119559   7   7   7   3
  6.0593392776   7   7   7   7
  -0.2346412811   8   1   1   1
  -0.1105724709   8   1   2   2
  -0.0584544486   8   1   3   3
  -0.1566313880   8   1   4   1
  -0.3736950506   8   1   4   4
  0.0623279985   8   1   5   5
  0.1778676974   8   1   6   2
  0.0623279985   8   1   6   6
  -0.1125300535   8   1   7   3
  -0.3736950506   8   1   7   7
  0.3077906494   8   1   8   1
  -0.0968770510   8   2   2   1
  0.2920203510   8   2   4   2
  -0.0917076926   8   2   5   3
  0.2509711474   8   2   6   1
  -0.1856119194   8   2   6   4
  -0.1856119194   8   2   7   5
  0.2545879568   8   2   8   2
  0.5828933766   8   3   3   1
  0.0094574567   8   3   4   3
  -0.5274561399   8   3   5   2
  -0.6078496995   8   3   6   5
  0.0304429971   8   3   7   1
  0.2584789286   8   3   7   4
  0.4960813021   8   3   8   3
  -0.5956643360   8   4   1   1
  0.1249156133   8   4   2   2
  -0.5174258475   8   4   3   3
  -0.6397301277   8   4   4   1
  -0.2879119559   8   4   4   4
  -0.2173158927   8   4   5   5
  -0.3520634165   8   4   6   2
  -0.2173158927   8   4   6   6
  -0.4867710615   8   4   7   3
  -0.2879119559   8   4   7   7
  0.1125300535   8   4   8   1
  0.4867710615   8   4   8   4
  -0.3639236675   8   5   3   2
  0.4214144602   8   5   5   1
  -0.0680433485   8   5   5   4
  -0.4745742893   8   5   6   3
  0.0959455082   8   5   7   2
  -0.0680433485   8   5   7   6
  0.4745742893   8   5   8   5
  1.1623049859   8   6   2   1
  -1.1126792718   8   6   4   2
  -1.3342297416   8   6   5   3
  0.3277799914   8   6   6   1
  0.6804915701   8   6   6   4
  0.6804915701   8   6   7   5
  0.0917076926   8   6   8   2
  1.3342297416   8   6   8   6
  -0.1510768927   8   7   3   1
  -0.1872640954   8   7   4   3
  -0.0362696817   8   7   5   2
  0.1445749887   8   7   6   5
  -0.2494520234   8   7   7   1
  -0.0431296444   8   7   7   4
  -0.0094574567   8   7   8   3
  0.1872640954   8   7   8   7
  6.1664033993   8   8   1   1
  5.3912166464   8   8   2   2
  6.1175548957   8   8   3   3
  0.6781203580   8   8   4   1
  5.7936443745   8   8   4   4
  5.8097030310   8   8   5   5
  0.4305090084   8   8   6   2
  5.8097030310   8   8   6   6
  0.5174258475   8   8   7   3
  5.7936443745   8   8   7   7
  -0.0584544486   8   8   8   1
  -0.5174258475   8   8   8   4
  6.1175548957   8   8   8   8
  -0.0158281920   9   1   3   2
  0.0469530725   9   1   5   1
  0.0871618122   9   1   5   4
  -0.1775482822   9   1   6   3
  -0.1426867649   9   1   7   2
  0.0871618122   9   1   7   6
  0.1775482822   9   1   8   5
  0.1520894785   9   1   9   1
  0.0138155622   9   2   3   1
  -0.1798317839   9   2   4   3
  -0.1810273998   9   2   5   2
  0.1958911990   9   2   6   5
  -0.2346225270   9   2   7   1
  0.2523108408   9   2   7   4
  -0.0951235807   9   2   8   3
  0.1798317839   9   2   8   7
  0.3718631312   9   2   9   2
  0.0968770510   9   3   2   1
  -0.2920203510   9   3   4   2
  0.0917076926   9   3   5   3
  -0.2509711474   9   3   6   1
  0.1856119194   9   3   6   4
  0.1856119194   9   3   7   5
  -0.2545879568   9   3   8   2
  -0.0917076926   9   3   8   6
  0.2545879568   9   3   9   3
  -0.3244080751   9   4   3   2
  0.3159842730   9   4   5   1
  -0.2485269768   9   4   5   4
  -0.0959455082   9   4   6   3
  0.3916798220   9   4   7   2
  -0.2485269768   9   4   7   6
  0.0959455082   9   4   8   5
  -0.1426867649   9   4   9   1
  0.3916798220   9   4   9   4
  0.3416315695   9   5   1   1
  -0.2186518701   9   5   2   2
  0.4305090084   9   5   3   3
  0.4546508103   9   5   4   1
  -0.0743538913   9   5   4   4
  0.2607464339   9   5   5   5
  0.4931708560   9   5   6   2
  0.2607464339   9   5   6   6
  0.3520634165   9   5   7   3
  -0.0743538913   9   5   7   7
  0.1778676974   9   5   8   1
  -0.3520634165   9   5   8   4
  0.4305090084   9   5   8   8
  0.4931708560   9   5   9   5
  -0.9195130376   9   6   3   1
  0.0362696817   9   6   4   3
  0.8799717660   9   6   5   2
  0.6743698059   9   6   6   5
  0.0188831151   9   6   7   1
  -0.7024639480   9   6   7   4
  -0.5274561399   9   6   8   3
  -0.0362696817   9   6   8   7
  -0.1810273998   9   6   9   2
  0.8799717660   9   6   9   6
  -1.2316584557   9   7   2   1
  1.4748391872   9   7   4   2
  1.1126792718   9   7   5   3
  0.0656972785   9   7   6   1
  -0.9123975558   9   7   6   4
  -0.9123975558   9   7   7   5
  0.2920203510   9   7   8   2
  -1.1126792718   9   7   8   6
  -0.2920203510   9   7   9   3
  1.4748391872   9   7   9   7
  -0.4480760431   9   8   3   2
  0.4786554584   9   8   5   1
  -0.2103600637   9   8   5   4
  -0.3639236675   9   8   6   3
  0.3244080751   9   8   7   2
  -0.2103600637   9   8   7   6
  0.3639236675   9   8   8   5
  0.0158281920   9   8   9   1
  0.3244080751   9   8   9   4
  0.4480760431   9   8   9   8
  5.4493820665   9   9   1   1
  5.6553371314   9   9   2   2
  5.3912166464   9   9   3   3
  -0.1598423207   9   9   4   1
  5.6323843814   9   9   4   4
  5.4427914500   9   9   5   5
  -0.2186518701   9   9   6   2
  5.4427914500   9   9   6   6
  -0.1249156133   9   9   7   3
  5.6323843814   9   9   7   7
  -0.1105724709   9   9   8   1
  0.1249156133   9   9   8   4
  5.3912166464   9   9   8   8
  -0.2186518701   9   9   9   5
  5.6553371314   9   9   9   9
  0.0687610885   10   1   3   1
  0.0811182151   10   1   4   3
  0.0126580548   10   1   5   2
  0.1096013825   10   1   6   5
  0.1081594350   10   1   7   1
  0.1958529745   10   1   7   4
  -0.1687363343   10   1   8   3
  -0.0811182151   10   1   8   7
  0.0972968232   10   1   9   2
  0.0126580548   10   1   9   6
  0.2098333268   10   1   10   1
  -0.0158281920   10   2   3   2
  0.0469530725   10   2   5   1
  0.0871618122   10   2   5   4
  -0.1775482822   10   2   6   3
  -0.1426867649   10   2   7   2
  0.0871618122   10   2   7   6
  0.1775482822   10   2   8   5
  0.1520894785   10   2   9   1
  -0.1426867649   10   2   9   4
  0.0158281920   10   2   9   8
  0.1520894785   10   2   10   2
  0.2346412811   10   3   1   1
  0.1105724709   10   3   2   2
  0.0584544486   10   3   3   3
  0.1566313880   10   3   4   1
  0.3736950506   10   3   4   4
  -0.0623279985   10   3   5   5
  -0.1778676974   10   3   6   2
  -0.0623279985   10   3   6   6
  0.1125300535   10   3   7   3
  0.3736950506   10   3   7   7
  -0.3077906494   10   3   8   1
  -0.1125300535   10   3   8   4
  0.0584544486   10   3   8   8
  -0.1778676974   10   3   9   5
  0.1105724709   10   3   9   9
  0.3077906494   10   3   10   3
  0.2332352686   10   4   3   1
  0.2494520234   10   4   4   3
  0.0188831151   10   4   5   2
  -0.2162667518   10   4   6   5
  0.3332840084   10   4   7   1
  0.0814175068   10   4   7   4
  0.0304429971   10   4   8   3
  -0.2494520234   10   4   8   7
  -0.2346225270   10   4   9   2
  0.0188831151   10   4   9   6
  0.1081594350   10   4   10   1
  0.3332840084   10   4   10   4
  0.1229031300   10   5   2   1
  0.0656972785   10   5   4   2
  -0.3277799914   10   5   5   3
  0.2907097362   10   5   6   1
  -0.0466365097   10   5   6   4
  -0.0466365097   10   5   7   5
  0.2509711474   10   5   8   2
  0.3277799914   10   5   8   6
  -0.2509711474   10   5   9   3
  0.0656972785   10   5   9   7
  0.2907097362   10   5   10   5
  -0.4786554584   10   6   3   2
  0.5172789022   10   6   5   1
  -0.2059609370   10   6   5   4
  -0.4214144602   10   6   6   3
  0.3159842730   10   6   7   2
  -0.2059609370   10   6   7   6
  0.4214144602   10   6   8   5
  0.0469530725   10   6   9   1
  0.3159842730   10   6   9   4
  0.4786554584   10   6   9   8
  0.0469530725   10   6   10   2
  0.5172789022   10   6   10   6
  0.7858481935   10   7   1   1
  -0.1598423207   10   7   2   2
  0.6781203580   10   7   3   3
  0.8410249759   10   7   4   1
  0.3879105858   10   7   4   4
  0.2821116689   10   7   5   5
  0.4546508103   10   7   6   2
  0.2821116689   10   7   6   6
  0.6397301277   10   7   7   3
  0.3879105858   10   7   7   7
  -0.1566313880   10   7   8   1
  -0.6397301277   10   7   8   4
  0.6781203580   10   7   8   8
  0.4546508103   10   7   9   5
  -0.1598423207   10   7   9   9
  0.1566313880   10   7   10   3
  0.8410249759   10   7   10   7
  -1.1530699652   10   8   3   1
  -0.1510768927   10   8   4   3
  0.9195130376   10   8   5   2
  0.8800186645   10   8   6   5
  -0.2332352686   10   8   7   1
  -0.8073564283   10   8   7   4
  -0.5828933766   10   8   8   3
  0.1510768927   10   8   8   7
  -0.0138155622   10   8   9   2
  0.9195130376   10   8   9   6
  -0.0687610885   10   8   10   1
  -0.2332352686   10   8   10   4
  1.1530699652   10   8   10   8
  1.1383846276   10   9   2   1
  -1.2316584557   10   9   4   2
  -1.1623049859   10   9   5   3
  0.1229031300   10   9   6   1
  0.7582535113   10   9   6   4
  0.7582535113   10   9   7   5
  -0.0968770510   10   9   8   2
  1.1623049859   10   9   8   6
  0.0968770510   10   9   9   3
  -1.2316584557   10   9   9   7
  0.1229031300   10   9   10   5
  1.1383846276   10   9   10   9
  6.3165343297   10   10   1   1
  5.4493820665   10   10   2   2
  6.1664033993   10   10   3   3
  0.7858481935   10   10   4   1
  6.0122494482   10   10   4   4
  5.7814730508   10   10   5   5
  0.3416315695   10   10   6   2
  5.7814730508   10   10   6   6
  0.5956643360   10   10   7   3
  6.0122494482   10   10   7   7
  -0.2346412811   10   10   8   1
  -0.5956643360   10   10   8   4
  6.1664033993   10   10   8   8
  0.3416315695   10   10   9   5
  5.4493820665   10   10   9   9
  0.2346412811   10   10   10   3
  0.7858481935   10   10   10   7
  6.3165343297   10   10   10   10
  231.5474626873516399   0   0   0   0
