 &FCI NORB= 12,NELEC= ,MS0= ,
  ORBSYM=1,2,1,4,3,2,1,4,3,2,1,2,
  ISYM=1,
 /
  -24.1288609150381034851307049   1   1   0   0
  -21.9004864144425432925800123   2   2   0   0
  1.6225734512141172238841591   3   1   0   0
  -20.7017864938045939027233544   3   3   0   0
  -19.9798947807553588518203469   4   4   0   0
  -19.9733234600999125518683286   5   5   0   0
  -1.2937307962195612187628058   6   2   0   0
  -19.8806803065932697904827364   6   6   0   0
  -0.5748111726731428561265602   7   1   0   0
  1.1759159616882686183458873   7   3   0   0
  -16.4164564537525059506606340   7   7   0   0
  0.9495676738963969576445834   8   4   0   0
  -15.1733517025580013637409138   8   8   0   0
  -0.9660336023477735789555254   9   5   0   0
  -15.1799230232134654272613261   9   9   0   0
  0.2358188386803516944922876   10   2   0   0
  1.0312369491585695602253736   10   6   0   0
  -14.4707767568150753589861779   10   10   0   0
  0.1427083046546904210316598   11   1   0   0
  -0.2677713470709404131042675   11   3   0   0
  1.3160058202094377932667157   11   7   0   0
  -12.7987955816644021211914151   11   11   0   0
  -0.1156481296753529841581098   12   2   0   0
  -0.4557945970058521201195845   12   6   0   0
  1.5230014156833722172024181   12   10   0   0
  -13.3339559664087499157858474   12   12   0   0
  2.5242432946   1   1   1   1
  0.7859128296   2   1   2   1
  2.0747503923   2   2   1   1
  2.1330903343   2   2   2   2
  -0.5079977328   3   1   1   1
  0.0667881940   3   1   2   2
  0.6525064900   3   1   3   1
  0.4339799238   3   2   2   1
  0.7455184899   3   2   3   2
  2.1876657652   3   3   1   1
  2.1303326756   3   3   2   2
  -0.0450805569   3   3   3   1
  2.4093883808   3   3   3   3
  0.4625782245   4   1   4   1
  0.6512853159   4   2   4   2
  0.1466227596   4   3   4   1
  0.2310029367   4   3   4   3
  2.1217513097   4   4   1   1
  2.1160699006   4   4   2   2
  -0.0204074240   4   4   3   1
  1.8967902969   4   4   3   3
  2.3282664074   4   4   4   4
  -0.5672914821   5   1   4   2
  0.5107152293   5   1   5   1
  -0.5163889758   5   2   4   1
  -0.2276037339   5   2   4   3
  0.5986043446   5   2   5   2
  -0.2333835227   5   3   4   2
  0.1534046016   5   3   5   1
  0.2336473141   5   3   5   3
  -0.8954779847   5   4   2   1
  -0.5155698682   5   4   3   2
  1.2283981921   5   4   5   4
  2.1199603313   5   5   1   1
  2.1163492753   5   5   2   2
  -0.0178777231   5   5   3   1
  1.8977417176   5   5   3   3
  2.3277378605   5   5   4   4
  2.3272425608   5   5   5   5
  0.2460352112   6   1   2   1
  -0.3706103620   6   1   3   2
  -0.2304906661   6   1   5   4
  0.5880736143   6   1   6   1
  0.3916662904   6   2   1   1
  -0.0605989027   6   2   2   2
  -0.5293316320   6   2   3   1
  -0.1694450618   6   2   3   3
  0.1801792172   6   2   4   4
  0.1770681639   6   2   5   5
  0.5836415790   6   2   6   2
  -0.7591382501   6   3   2   1
  -0.5535711739   6   3   3   2
  0.6684748203   6   3   5   4
  -0.1311428952   6   3   6   1
  0.9660898432   6   3   6   3
  0.1387788636   6   4   4   2
  -0.1864644714   6   4   5   1
  0.1475128301   6   4   5   3
  0.2889100614   6   4   6   4
  -0.1578367832   6   5   4   1
  0.1499245371   6   5   4   3
  0.1069291379   6   5   5   2
  0.2705247109   6   5   6   5
  2.3373331273   6   6   1   1
  2.1042279210   6   6   2   2
  -0.2618184740   6   6   3   1
  2.2712219765   6   6   3   3
  1.9993386758   6   6   4   4
  1.9976370453   6   6   5   5
  0.1335644471   6   6   6   2
  2.3645254442   6   6   6   6
  0.2143094168   7   1   1   1
  -0.0130308412   7   1   2   2
  -0.2325357923   7   1   3   1
  0.3575478468   7   1   3   3
  -0.2679478131   7   1   4   4
  -0.2672529937   7   1   5   5
  -0.0650683728   7   1   6   2
  0.2340258268   7   1   6   6
  0.5015199370   7   1   7   1
  -0.0885270752   7   2   2   1
  0.1119705595   7   2   3   2
  0.3641309495   7   2   5   4
  -0.1513232294   7   2   6   1
  -0.2205348614   7   2   6   3
  0.4128671227   7   2   7   2
  -0.3694227124   7   3   1   1
  0.0522378596   7   3   2   2
  0.4714322679   7   3   3   1
  0.0327842716   7   3   3   3
  -0.1258432118   7   3   4   4
  -0.1260273669   7   3   5   5
  -0.4026678886   7   3   6   2
  -0.0155170679   7   3   6   6
  -0.1153775606   7   3   7   1
  0.6293236693   7   3   7   3
  -0.3968220622   7   4   4   1
  -0.0866624714   7   4   4   3
  0.4294323111   7   4   5   2
  0.1777877645   7   4   6   5
  0.3487056852   7   4   7   4
  0.4752940206   7   5   4   2
  -0.4399131441   7   5   5   1
  -0.0923753847   7   5   5   3
  0.2037583246   7   5   6   4
  0.3873556763   7   5   7   5
  -0.3086729342   7   6   2   1
  -0.4423345948   7   6   3   2
  0.3950471196   7   6   5   4
  0.1800120112   7   6   6   1
  0.3391590277   7   6   6   3
  -0.0099793090   7   6   7   2
  0.6584626564   7   6   7   6
  2.3373331273   7   7   1   1
  2.1042279210   7   7   2   2
  -0.2618184740   7   7   3   1
  2.2712219765   7   7   3   3
  1.9993386758   7   7   4   4
  1.9976370453   7   7   5   5
  0.1335644471   7   7   6   2
  2.3645254442   7   7   6   6
  0.2340258268   7   7   7   1
  -0.0155170679   7   7   7   3
  2.3645254442   7   7   7   7
  -0.1016525818   8   1   4   1
  0.2112003886   8   1   4   3
  0.0291511308   8   1   5   2
  0.2984549292   8   1   6   5
  0.1388047356   8   1   7   4
  0.3434483015   8   1   8   1
  0.0810126952   8   2   4   2
  0.0148854292   8   2   5   1
  -0.2860234153   8   2   5   3
  -0.3206358380   8   2   6   4
  -0.0744030261   8   2   7   5
  0.4503331914   8   2   8   2
  0.3009795048   8   3   4   1
  0.2143743516   8   3   4   3
  -0.3772068228   8   3   5   2
  0.0262214108   8   3   6   5
  -0.2329739833   8   3   7   4
  0.0908032336   8   3   8   1
  0.2725415194   8   3   8   3
  -0.2610434670   8   4   1   1
  0.0407201581   8   4   2   2
  0.3687157103   8   4   3   1
  0.1386740113   8   4   3   3
  -0.0770381812   8   4   4   4
  -0.0721922457   8   4   5   5
  -0.4534505362   8   4   6   2
  -0.2480205946   8   4   6   6
  0.1012731780   8   4   7   1
  -0.0268414633   8   4   7   3
  -0.2480205946   8   4   7   7
  0.7063177076   8   4   8   4
  -0.0469846295   8   5   2   1
  -0.4032844080   8   5   3   2
  0.0788291376   8   5   5   4
  0.3644009517   8   5   6   1
  0.1362882661   8   5   6   3
  -0.1022300221   8   5   7   2
  -0.1634235045   8   5   7   6
  0.6708712519   8   5   8   5
  -0.4752940206   8   6   4   2
  0.4399131441   8   6   5   1
  0.0923753847   8   6   5   3
  -0.2037583246   8   6   6   4
  -0.3873556763   8   6   7   5
  0.0744030261   8   6   8   2
  0.3873556763   8   6   8   6
  0.1578367832   8   7   4   1
  -0.1499245371   8   7   4   3
  -0.1069291379   8   7   5   2
  -0.2705247109   8   7   6   5
  -0.1777877645   8   7   7   4
  -0.2984549292   8   7   8   1
  -0.0262214108   8   7   8   3
  0.2705247109   8   7   8   7
  2.1199603313   8   8   1   1
  2.1163492753   8   8   2   2
  -0.0178777231   8   8   3   1
  1.8977417176   8   8   3   3
  2.3277378605   8   8   4   4
  2.3272425608   8   8   5   5
  0.1770681639   8   8   6   2
  1.9976370453   8   8   6   6
  -0.2672529937   8   8   7   1
  -0.1260273669   8   8   7   3
  1.9976370453   8   8   7   7
  -0.0721922457   8   8   8   4
  2.3272425608   8   8   8   8
  -0.0578886210   9   1   4   2
  0.1269159829   9   1   5   1
  -0.2093102260   9   1   5   3
  -0.3148139244   9   1   6   4
  -0.1617737499   9   1   7   5
  0.3869062805   9   1   8   2
  0.1617737499   9   1   8   6
  0.3579407210   9   1   9   1
  -0.0015925079   9   2   4   1
  0.2852805312   9   2   4   3
  -0.0972246392   9   2   5   2
  0.3102190311   9   2   6   5
  0.0619490345   9   2   7   4
  0.3773448515   9   2   8   1
  0.1832220357   9   2   8   3
  -0.3102190311   9   2   8   7
  0.4426113946   9   2   9   2
  0.4020495297   9   3   4   2
  -0.3257827779   9   3   5   1
  -0.2175029678   9   3   5   3
  -0.0108780782   9   3   6   4
  0.2552548233   9   3   7   5
  0.1758061053   9   3   8   2
  -0.2552548233   9   3   8   6
  0.0768736391   9   3   9   1
  0.2841359483   9   3   9   3
  0.0408408949   9   4   2   1
  0.3997471637   9   4   3   2
  -0.0704012894   9   4   5   4
  -0.3659823122   9   4   6   1
  -0.1317019647   9   4   6   3
  0.1047282677   9   4   7   2
  0.1661338612   9   4   7   6
  -0.6703304175   9   4   8   5
  0.6698474052   9   4   9   4
  0.2610434670   9   5   1   1
  -0.0407201581   9   5   2   2
  -0.3687157103   9   5   3   1
  -0.1386740113   9   5   3   3
  0.0770381812   9   5   4   4
  0.0721922457   9   5   5   5
  0.4534505362   9   5   6   2
  0.2480205946   9   5   6   6
  -0.1012731780   9   5   7   1
  0.0268414633   9   5   7   3
  0.2480205946   9   5   7   7
  -0.7063177076   9   5   8   4
  0.0721922457   9   5   8   8
  0.7063177076   9   5   9   5
  -0.3968220622   9   6   4   1
  -0.0866624714   9   6   4   3
  0.4294323111   9   6   5   2
  0.1777877645   9   6   6   5
  0.3487056852   9   6   7   4
  0.1388047356   9   6   8   1
  -0.2329739833   9   6   8   3
  -0.1777877645   9   6   8   7
  0.0619490345   9   6   9   2
  0.3487056852   9   6   9   6
  0.1387788636   9   7   4   2
  -0.1864644714   9   7   5   1
  0.1475128301   9   7   5   3
  0.2889100614   9   7   6   4
  0.2037583246   9   7   7   5
  -0.3206358380   9   7   8   2
  -0.2037583246   9   7   8   6
  -0.3148139244   9   7   9   1
  -0.0108780782   9   7   9   3
  0.2889100614   9   7   9   7
  0.8954779847   9   8   2   1
  0.5155698682   9   8   3   2
  -1.2283981921   9   8   5   4
  0.2304906661   9   8   6   1
  -0.6684748203   9   8   6   3
  -0.3641309495   9   8   7   2
  -0.3950471196   9   8   7   6
  -0.0788291376   9   8   8   5
  0.0704012894   9   8   9   4
  1.2283981921   9   8   9   8
  2.1217513097   9   9   1   1
  2.1160699006   9   9   2   2
  -0.0204074240   9   9   3   1
  1.8967902969   9   9   3   3
  2.3282664074   9   9   4   4
  2.3277378605   9   9   5   5
  0.1801792172   9   9   6   2
  1.9993386758   9   9   6   6
  -0.2679478131   9   9   7   1
  -0.1258432118   9   9   7   3
  1.9993386758   9   9   7   7
  -0.0770381812   9   9   8   4
  2.3277378605   9   9   8   8
  0.0770381812   9   9   9   5
  2.3282664074   9   9   9   9
  -0.0880540864   10   1   2   1
  0.0865607134   10   1   3   2
  -0.1847267917   10   1   5   4
  -0.2016550211   10   1   6   1
  0.3216837911   10   1   6   3
  -0.3111612089   10   1   7   2
  -0.0812355688   10   1   7   6
  -0.1084694515   10   1   8   5
  0.1072020698   10   1   9   4
  0.1847267917   10   1   9   8
  0.4228039746   10   1   10   1
  -0.1006676216   10   2   1   1
  0.0005924249   10   2   2   2
  0.1049000455   10   2   3   1
  -0.2777354258   10   2   3   3
  0.2637528304   10   2   4   4
  0.2648398178   10   2   5   5
  0.0920916006   10   2   6   2
  -0.2766795722   10   2   6   6
  -0.3459220543   10   2   7   1
  -0.1997384510   10   2   7   3
  -0.2766795722   10   2   7   7
  0.1584334829   10   2   8   4
  0.2648398178   10   2   8   8
  -0.1584334829   10   2   9   5
  0.2637528304   10   2   9   9
  0.4429285449   10   2   10   2
  0.1070020687   10   3   2   1
  -0.3051034916   10   3   3   2
  -0.2056298219   10   3   5   4
  0.3844031974   10   3   6   1
  0.0898397669   10   3   6   3
  -0.2567049638   10   3   7   2
  0.5245917321   10   3   7   6
  -0.1254654259   10   3   8   5
  0.1240546317   10   3   9   4
  0.2056298219   10   3   9   8
  0.0240508617   10   3   10   1
  0.7101128888   10   3   10   3
  0.4020495297   10   4   4   2
  -0.3257827779   10   4   5   1
  -0.2175029678   10   4   5   3
  -0.0108780782   10   4   6   4
  0.2552548233   10   4   7   5
  0.1758061053   10   4   8   2
  -0.2552548233   10   4   8   6
  0.0768736391   10   4   9   1
  0.2841359483   10   4   9   3
  -0.0108780782   10   4   9   7
  0.2841359483   10   4   10   4
  -0.3009795048   10   5   4   1
  -0.2143743516   10   5   4   3
  0.3772068228   10   5   5   2
  -0.0262214108   10   5   6   5
  0.2329739833   10   5   7   4
  -0.0908032336   10   5   8   1
  -0.2725415194   10   5   8   3
  0.0262214108   10   5   8   7
  -0.1832220357   10   5   9   2
  0.2329739833   10   5   9   6
  0.2725415194   10   5   10   5
  -0.3694227124   10   6   1   1
  0.0522378596   10   6   2   2
  0.4714322679   10   6   3   1
  0.0327842716   10   6   3   3
  -0.1258432118   10   6   4   4
  -0.1260273669   10   6   5   5
  -0.4026678886   10   6   6   2
  -0.0155170679   10   6   6   6
  -0.1153775606   10   6   7   1
  0.6293236693   10   6   7   3
  -0.0155170679   10   6   7   7
  -0.0268414633   10   6   8   4
  -0.1260273669   10   6   8   8
  0.0268414633   10   6   9   5
  -0.1258432118   10   6   9   9
  -0.1997384510   10   6   10   2
  0.6293236693   10   6   10   6
  -0.7591382501   10   7   2   1
  -0.5535711739   10   7   3   2
  0.6684748203   10   7   5   4
  -0.1311428952   10   7   6   1
  0.9660898432   10   7   6   3
  -0.2205348614   10   7   7   2
  0.3391590277   10   7   7   6
  0.1362882661   10   7   8   5
  -0.1317019647   10   7   9   4
  -0.6684748203   10   7   9   8
  0.3216837911   10   7   10   1
  0.0898397669   10   7   10   3
  0.9660898432   10   7   10   7
  0.2333835227   10   8   4   2
  -0.1534046016   10   8   5   1
  -0.2336473141   10   8   5   3
  -0.1475128301   10   8   6   4
  0.0923753847   10   8   7   5
  0.2860234153   10   8   8   2
  -0.0923753847   10   8   8   6
  0.2093102260   10   8   9   1
  0.2175029678   10   8   9   3
  -0.1475128301   10   8   9   7
  0.2175029678   10   8   10   4
  0.2336473141   10   8   10   8
  0.1466227596   10   9   4   1
  0.2310029367   10   9   4   3
  -0.2276037339   10   9   5   2
  0.1499245371   10   9   6   5
  -0.0866624714   10   9   7   4
  0.2112003886   10   9   8   1
  0.2143743516   10   9   8   3
  -0.1499245371   10   9   8   7
  0.2852805312   10   9   9   2
  -0.0866624714   10   9   9   6
  -0.2143743516   10   9   10   5
  0.2310029367   10   9   10   9
  2.1876657652   10   10   1   1
  2.1303326756   10   10   2   2
  -0.0450805569   10   10   3   1
  2.4093883808   10   10   3   3
  1.8967902969   10   10   4   4
  1.8977417176   10   10   5   5
  -0.1694450618   10   10   6   2
  2.2712219765   10   10   6   6
  0.3575478468   10   10   7   1
  0.0327842716   10   10   7   3
  2.2712219765   10   10   7   7
  0.1386740113   10   10   8   4
  1.8977417176   10   10   8   8
  -0.1386740113   10   10   9   5
  1.8967902969   10   10   9   9
  -0.2777354258   10   10   10   2
  0.0327842716   10   10   10   6
  2.4093883808   10   10   10   10
  -0.0763269211   11   1   1   1
  0.0066568170   11   1   2   2
  0.0754285749   11   1   3   1
  -0.0982848783   11   1   3   3
  0.0157652718   11   1   4   4
  0.0133661908   11   1   5   5
  0.0355424614   11   1   6   2
  0.0742344112   11   1   6   6
  -0.1677592809   11   1   7   1
  0.3114680537   11   1   7   3
  0.0742344112   11   1   7   7
  -0.3496772411   11   1   8   4
  0.0133661908   11   1   8   8
  0.3496772411   11   1   9   5
  0.0157652718   11   1   9   9
  -0.1145639579   11   1   10   2
  0.3114680537   11   1   10   6
  -0.0982848783   11   1   10   10
  0.3235825926   11   1   11   1
  0.0269561847   11   2   2   1
  -0.0183716048   11   2   3   2
  0.0621144302   11   2   5   4
  0.0544145679   11   2   6   1
  -0.1063936755   11   2   6   3
  0.1055311646   11   2   7   2
  -0.3647455102   11   2   7   6
  0.4135740736   11   2   8   5
  -0.4131479162   11   2   9   4
  -0.0621144302   11   2   9   8
  -0.1352217258   11   2   10   1
  -0.4021889030   11   2   10   3
  -0.1063936755   11   2   10   7
  0.4296242604   11   2   11   2
  0.1006676216   11   3   1   1
  -0.0005924249   11   3   2   2
  -0.1049000455   11   3   3   1
  0.2777354258   11   3   3   3
  -0.2637528304   11   3   4   4
  -0.2648398178   11   3   5   5
  -0.0920916006   11   3   6   2
  0.2766795722   11   3   6   6
  0.3459220543   11   3   7   1
  0.1997384510   11   3   7   3
  0.2766795722   11   3   7   7
  -0.1584334829   11   3   8   4
  -0.2648398178   11   3   8   8
  0.1584334829   11   3   9   5
  -0.2637528304   11   3   9   9
  -0.4429285449   11   3   10   2
  0.1997384510   11   3   10   6
  0.2777354258   11   3   10   10
  0.1145639579   11   3   11   1
  0.4429285449   11   3   11   3
  0.0015925079   11   4   4   1
  -0.2852805312   11   4   4   3
  0.0972246392   11   4   5   2
  -0.3102190311   11   4   6   5
  -0.0619490345   11   4   7   4
  -0.3773448515   11   4   8   1
  -0.1832220357   11   4   8   3
  0.3102190311   11   4   8   7
  -0.4426113946   11   4   9   2
  -0.0619490345   11   4   9   6
  0.1832220357   11   4   10   5
  -0.2852805312   11   4   10   9
  0.4426113946   11   4   11   4
  0.0810126952   11   5   4   2
  0.0148854292   11   5   5   1
  -0.2860234153   11   5   5   3
  -0.3206358380   11   5   6   4
  -0.0744030261   11   5   7   5
  0.4503331914   11   5   8   2
  0.0744030261   11   5   8   6
  0.3869062805   11   5   9   1
  0.1758061053   11   5   9   3
  -0.3206358380   11   5   9   7
  0.1758061053   11   5   10   4
  0.2860234153   11   5   10   8
  0.4503331914   11   5   11   5
  0.0885270752   11   6   2   1
  -0.1119705595   11   6   3   2
  -0.3641309495   11   6   5   4
  0.1513232294   11   6   6   1
  0.2205348614   11   6   6   3
  -0.4128671227   11   6   7   2
  0.0099793090   11   6   7   6
  0.1022300221   11   6   8   5
  -0.1047282677   11   6   9   4
  0.3641309495   11   6   9   8
  0.3111612089   11   6   10   1
  0.2567049638   11   6   10   3
  0.2205348614   11   6   10   7
  -0.1055311646   11   6   11   2
  0.4128671227   11   6   11   6
  -0.3916662904   11   7   1   1
  0.0605989027   11   7   2   2
  0.5293316320   11   7   3   1
  0.1694450618   11   7   3   3
  -0.1801792172   11   7   4   4
  -0.1770681639   11   7   5   5
  -0.5836415790   11   7   6   2
  -0.1335644471   11   7   6   6
  0.0650683728   11   7   7   1
  0.4026678886   11   7   7   3
  -0.1335644471   11   7   7   7
  0.4534505362   11   7   8   4
  -0.1770681639   11   7   8   8
  -0.4534505362   11   7   9   5
  -0.1801792172   11   7   9   9
  -0.0920916006   11   7   10   2
  0.4026678886   11   7   10   6
  0.1694450618   11   7   10   10
  -0.0355424614   11   7   11   1
  0.0920916006   11   7   11   3
  0.5836415790   11   7   11   7
  -0.5163889758   11   8   4   1
  -0.2276037339   11   8   4   3
  0.5986043446   11   8   5   2
  0.1069291379   11   8   6   5
  0.4294323111   11   8   7   4
  0.0291511308   11   8   8   1
  -0.3772068228   11   8   8   3
  -0.1069291379   11   8   8   7
  -0.0972246392   11   8   9   2
  0.4294323111   11   8   9   6
  0.3772068228   11   8   10   5
  -0.2276037339   11   8   10   9
  0.0972246392   11   8   11   4
  0.5986043446   11   8   11   8
  -0.6512853159   11   9   4   2
  0.5672914821   11   9   5   1
  0.2333835227   11   9   5   3
  -0.1387788636   11   9   6   4
  -0.4752940206   11   9   7   5
  -0.0810126952   11   9   8   2
  0.4752940206   11   9   8   6
  0.0578886210   11   9   9   1
  -0.4020495297   11   9   9   3
  -0.1387788636   11   9   9   7
  -0.4020495297   11   9   10   4
  -0.2333835227   11   9   10   8
  -0.0810126952   11   9   11   5
  0.6512853159   11   9   11   9
  -0.4339799238   11   10   2   1
  -0.7455184899   11   10   3   2
  0.5155698682   11   10   5   4
  0.3706103620   11   10   6   1
  0.5535711739   11   10   6   3
  -0.1119705595   11   10   7   2
  0.4423345948   11   10   7   6
  0.4032844080   11   10   8   5
  -0.3997471637   11   10   9   4
  -0.5155698682   11   10   9   8
  -0.0865607134   11   10   10   1
  0.3051034916   11   10   10   3
  0.5535711739   11   10   10   7
  0.0183716048   11   10   11   2
  0.1119705595   11   10   11   6
  0.7455184899   11   10   11   10
  2.0747503923   11   11   1   1
  2.1330903343   11   11   2   2
  0.0667881940   11   11   3   1
  2.1303326756   11   11   3   3
  2.1160699006   11   11   4   4
  2.1163492753   11   11   5   5
  -0.0605989027   11   11   6   2
  2.1042279210   11   11   6   6
  -0.0130308412   11   11   7   1
  0.0522378596   11   11   7   3
  2.1042279210   11   11   7   7
  0.0407201581   11   11   8   4
  2.1163492753   11   11   8   8
  -0.0407201581   11   11   9   5
  2.1160699006   11   11   9   9
  0.0005924249   11   11   10   2
  0.0522378596   11   11   10   6
  2.1303326756   11   11   10   10
  0.0066568170   11   11   11   1
  -0.0005924249   11   11   11   3
  0.0605989027   11   11   11   7
  2.1330903343   11   11   11   11
  0.0857346129   12   1   2   1
  -0.0574209850   12   1   3   2
  0.0572855738   12   1   5   4
  0.1526102826   12   1   6   1
  -0.2018810174   12   1   6   3
  0.1532579846   12   1   7   2
  0.4320558389   12   1   7   6
  -0.3061870566   12   1   8   5
  0.3065800839   12   1   9   4
  -0.0572855738   12   1   9   8
  -0.2407002318   12   1   10   1
  0.4013717607   12   1   10   3
  -0.2018810174   12   1   10   7
  -0.3098648361   12   1   11   2
  -0.1532579846   12   1   11   6
  0.0574209850   12   1   11   10
  0.5266747910   12   1   12   1
  0.0763269211   12   2   1   1
  -0.0066568170   12   2   2   2
  -0.0754285749   12   2   3   1
  0.0982848783   12   2   3   3
  -0.0157652718   12   2   4   4
  -0.0133661908   12   2   5   5
  -0.0355424614   12   2   6   2
  -0.0742344112   12   2   6   6
  0.1677592809   12   2   7   1
  -0.3114680537   12   2   7   3
  -0.0742344112   12   2   7   7
  0.3496772411   12   2   8   4
  -0.0133661908   12   2   8   8
  -0.3496772411   12   2   9   5
  -0.0157652718   12   2   9   9
  0.1145639579   12   2   10   2
  -0.3114680537   12   2   10   6
  0.0982848783   12   2   10   10
  -0.3235825926   12   2   11   1
  -0.1145639579   12   2   11   3
  0.0355424614   12   2   11   7
  -0.0066568170   12   2   11   11
  0.3235825926   12   2   12   2
  -0.0880540864   12   3   2   1
  0.0865607134   12   3   3   2
  -0.1847267917   12   3   5   4
  -0.2016550211   12   3   6   1
  0.3216837911   12   3   6   3
  -0.3111612089   12   3   7   2
  -0.0812355688   12   3   7   6
  -0.1084694515   12   3   8   5
  0.1072020698   12   3   9   4
  0.1847267917   12   3   9   8
  0.4228039746   12   3   10   1
  0.0240508617   12   3   10   3
  0.3216837911   12   3   10   7
  -0.1352217258   12   3   11   2
  0.3111612089   12   3   11   6
  -0.0865607134   12   3   11   10
  -0.2407002318   12   3   12   1
  0.4228039746   12   3   12   3
  -0.0578886210   12   4   4   2
  0.1269159829   12   4   5   1
  -0.2093102260   12   4   5   3
  -0.3148139244   12   4   6   4
  -0.1617737499   12   4   7   5
  0.3869062805   12   4   8   2
  0.1617737499   12   4   8   6
  0.3579407210   12   4   9   1
  0.0768736391   12   4   9   3
  -0.3148139244   12   4   9   7
  0.0768736391   12   4   10   4
  0.2093102260   12   4   10   8
  0.3869062805   12   4   11   5
  0.0578886210   12   4   11   9
  0.3579407210   12   4   12   4
  0.1016525818   12   5   4   1
  -0.2112003886   12   5   4   3
  -0.0291511308   12   5   5   2
  -0.2984549292   12   5   6   5
  -0.1388047356   12   5   7   4
  -0.3434483015   12   5   8   1
  -0.0908032336   12   5   8   3
  0.2984549292   12   5   8   7
  -0.3773448515   12   5   9   2
  -0.1388047356   12   5   9   6
  0.0908032336   12   5   10   5
  -0.2112003886   12   5   10   9
  0.3773448515   12   5   11   4
  -0.0291511308   12   5   11   8
  0.3434483015   12   5   12   5
  0.2143094168   12   6   1   1
  -0.0130308412   12   6   2   2
  -0.2325357923   12   6   3   1
  0.3575478468   12   6   3   3
  -0.2679478131   12   6   4   4
  -0.2672529937   12   6   5   5
  -0.0650683728   12   6   6   2
  0.2340258268   12   6   6   6
  0.5015199370   12   6   7   1
  -0.1153775606   12   6   7   3
  0.2340258268   12   6   7   7
  0.1012731780   12   6   8   4
  -0.2672529937   12   6   8   8
  -0.1012731780   12   6   9   5
  -0.2679478131   12   6   9   9
  -0.3459220543   12   6   10   2
  -0.1153775606   12   6   10   6
  0.3575478468   12   6   10   10
  -0.1677592809   12   6   11   1
  0.3459220543   12   6   11   3
  0.0650683728   12   6   11   7
  -0.0130308412   12   6   11   11
  0.1677592809   12   6   12   2
  0.5015199370   12   6   12   6
  0.2460352112   12   7   2   1
  -0.3706103620   12   7   3   2
  -0.2304906661   12   7   5   4
  0.5880736143   12   7   6   1
  -0.1311428952   12   7   6   3
  -0.1513232294   12   7   7   2
  0.1800120112   12   7   7   6
  0.3644009517   12   7   8   5
  -0.3659823122   12   7   9   4
  0.2304906661   12   7   9   8
  -0.2016550211   12   7   10   1
  0.3844031974   12   7   10   3
  -0.1311428952   12   7   10   7
  0.0544145679   12   7   11   2
  0.1513232294   12   7   11   6
  0.3706103620   12   7   11   10
  0.1526102826   12   7   12   1
  -0.2016550211   12   7   12   3
  0.5880736143   12   7   12   7
  0.5672914821   12   8   4   2
  -0.5107152293   12   8   5   1
  -0.1534046016   12   8   5   3
  0.1864644714   12   8   6   4
  0.4399131441   12   8   7   5
  -0.0148854292   12   8   8   2
  -0.4399131441   12   8   8   6
  -0.1269159829   12   8   9   1
  0.3257827779   12   8   9   3
  0.1864644714   12   8   9   7
  0.3257827779   12   8   10   4
  0.1534046016   12   8   10   8
  -0.0148854292   12   8   11   5
  -0.5672914821   12   8   11   9
  -0.1269159829   12   8   12   4
  0.5107152293   12   8   12   8
  0.4625782245   12   9   4   1
  0.1466227596   12   9   4   3
  -0.5163889758   12   9   5   2
  -0.1578367832   12   9   6   5
  -0.3968220622   12   9   7   4
  -0.1016525818   12   9   8   1
  0.3009795048   12   9   8   3
  0.1578367832   12   9   8   7
  -0.0015925079   12   9   9   2
  -0.3968220622   12   9   9   6
  -0.3009795048   12   9   10   5
  0.1466227596   12   9   10   9
  0.0015925079   12   9   11   4
  -0.5163889758   12   9   11   8
  0.1016525818   12   9   12   5
  0.4625782245   12   9   12   9
  -0.5079977328   12   10   1   1
  0.0667881940   12   10   2   2
  0.6525064900   12   10   3   1
  -0.0450805569   12   10   3   3
  -0.0204074240   12   10   4   4
  -0.0178777231   12   10   5   5
  -0.5293316320   12   10   6   2
  -0.2618184740   12   10   6   6
  -0.2325357923   12   10   7   1
  0.4714322679   12   10   7   3
  -0.2618184740   12   10   7   7
  0.3687157103   12   10   8   4
  -0.0178777231   12   10   8   8
  -0.3687157103   12   10   9   5
  -0.0204074240   12   10   9   9
  0.1049000455   12   10   10   2
  0.4714322679   12   10   10   6
  -0.0450805569   12   10   10   10
  0.0754285749   12   10   11   1
  -0.1049000455   12   10   11   3
  0.5293316320   12   10   11   7
  0.0667881940   12   10   11   11
  -0.0754285749   12   10   12   2
  -0.2325357923   12   10   12   6
  0.6525064900   12   10   12   10
  -0.7859128296   12   11   2   1
  -0.4339799238   12   11   3   2
  0.8954779847   12   11   5   4
  -0.2460352112   12   11   6   1
  0.7591382501   12   11   6   3
  0.0885270752   12   11   7   2
  0.3086729342   12   11   7   6
  0.0469846295   12   11   8   5
  -0.0408408949   12   11   9   4
  -0.8954779847   12   11   9   8
  0.0880540864   12   11   10   1
  -0.1070020687   12   11   10   3
  0.7591382501   12   11   10   7
  -0.0269561847   12   11   11   2
  -0.0885270752   12   11   11   6
  0.4339799238   12   11   11   10
  -0.0857346129   12   11   12   1
  0.0880540864   12   11   12   3
  -0.2460352112   12   11   12   7
  0.7859128296   12   11   12   11
  2.5242432946   12   12   1   1
  2.0747503923   12   12   2   2
  -0.5079977328   12   12   3   1
  2.1876657652   12   12   3   3
  2.1217513097   12   12   4   4
  2.1199603313   12   12   5   5
  0.3916662904   12   12   6   2
  2.3373331273   12   12   6   6
  0.2143094168   12   12   7   1
  -0.3694227124   12   12   7   3
  2.3373331273   12   12   7   7
  -0.2610434670   12   12   8   4
  2.1199603313   12   12   8   8
  0.2610434670   12   12   9   5
  2.1217513097   12   12   9   9
  -0.1006676216   12   12   10   2
  -0.3694227124   12   12   10   6
  2.1876657652   12   12   10   10
  -0.0763269211   12   12   11   1
  0.1006676216   12   12   11   3
  -0.3916662904   12   12   11   7
  2.0747503923   12   12   11   11
  0.0763269211   12   12   12   2
  0.2143094168   12   12   12   6
  -0.5079977328   12   12   12   10
  2.5242432946   12   12   12   12
  106.9691459275729386   0   0   0   0
