 &FCI NORB= 13,NELEC= ,MS0= ,
  ORBSYM=1,3,1,3,1,1,3,1,3,1,1,3,1,
  ISYM=1,
 /
  -27.2505411620433868336021987   1   1   0   0
  -24.0383473278999808542266692   2   2   0   0
  -0.0000000259451102824215241   3   1   0   0
  -24.0383472107029803055411321   3   3   0   0
  -0.7075465351455725304674615   4   2   0   0
  0.0000002296403566193205847   4   3   0   0
  -22.1227619598857714322548418   4   4   0   0
  0.0000000263098242636594648   5   1   0   0
  -0.0000002296403560642090724   5   2   0   0
  -0.7075465918735250880899912   5   3   0   0
  -22.1227620458795506408478104   5   5   0   0
  -2.2029139656382179524030107   6   1   0   0
  0.0000000309279507559878653   6   3   0   0
  -0.0000000961396622312093996   6   5   0   0
  -23.8265497820411198404144670   6   6   0   0
  0.0000000874159157193200486   7   2   0   0
  0.0000000303593263820566647   7   4   0   0
  -19.5954892412536700874170492   7   7   0   0
  -0.0000000206286656645460198   8   1   0   0
  -0.0000007748060728562933264   8   2   0   0
  -1.1340594996342647782228141   8   3   0   0
  -0.0000005233569088103351419   8   4   0   0
  -1.4592167423639654799671916   8   5   0   0
  0.0000000334132281842869361   8   6   0   0
  -18.2283413549082951021773624   8   8   0   0
  -1.1340594745960608236146072   9   2   0   0
  0.0000007748060899537279056   9   3   0   0
  -1.4592168266076888105686749   9   4   0   0
  0.0000005233568638463026446   9   5   0   0
  -0.0000000269971306153728196   9   7   0   0
  -18.2283413452639102558805462   9   9   0   0
  -0.2367552597580957485234876   10   1   0   0
  -0.6252210539268250322209042   10   6   0   0
  0.0000000788251943717455106   10   8   0   0
  -18.1179854211726798496329138   10   10   0   0
  0.0000004766922485632818507   11   2   0   0
  1.3864886051527194332777526   11   3   0   0
  0.0000000143329426105509583   11   4   0   0
  0.7444152049476502330804806   11   5   0   0
  -0.0000000172569952772150259   11   6   0   0
  1.2115824043936389564635192   11   8   0   0
  -0.0000004112135818523654507   11   9   0   0
  0.0000000567028271003522377   11   10   0   0
  -16.0216430322209504311103956   11   11   0   0
  1.3864885531221904368948117   12   2   0   0
  -0.0000004766922629961811708   12   3   0   0
  0.7444152101545511435176650   12   4   0   0
  -0.0000000143329398349933967   12   5   0   0
  0.0000000562047987492694578   12   7   0   0
  0.0000004112135292277940835   12   8   0   0
  1.2115823396562455105396339   12   9   0   0
  -16.0216431279325099978905200   12   12   0   0
  -1.0142528927560217066883297   13   1   0   0
  -0.0000000297013420524905314   13   5   0   0
  0.6215150153586995740440102   13   6   0   0
  0.0000000330466178311006331   13   8   0   0
  1.8806072713441319699256837   13   10   0   0
  0.0000000258335504099704849   13   11   0   0
  -15.8914125072786660552992544   13   13   0   0
  2.5130082638   1   1   1   1
  0.6484727969   2   1   2   1
  2.1595739130   2   2   1   1
  -0.0000000143   2   2   2   1
  2.4770653659   2   2   2   2
  -0.0252041718   3   1   2   2
  0.6484727812   3   1   3   1
  -0.0252041734   3   2   2   1
  0.0000000143   3   2   3   1
  0.2953757386   3   2   3   2
  2.1595738985   3   3   1   1
  0.0000000143   3   3   2   1
  1.8863138923   3   3   2   2
  0.0252041755   3   3   3   1
  2.4770653462   3   3   3   3
  0.0980247155   4   1   2   1
  -0.0000000861   4   1   2   2
  -0.0000000318   4   1   3   1
  -0.3527156181   4   1   3   2
  0.0000000861   4   1   3   3
  0.4347275668   4   1   4   1
  0.1534881504   4   2   1   1
  -0.0000001285   4   2   2   1
  0.0299594062   4   2   2   2
  -0.5266048481   4   2   3   1
  0.0556744628   4   2   3   3
  0.5618702144   4   2   4   2
  -0.0000000498   4   3   1   1
  -0.5266048593   4   3   2   1
  -0.0000000181   4   3   2   2
  0.0000001285   4   3   3   1
  -0.0128575322   4   3   3   2
  -0.0321303077   4   3   4   1
  0.0000000912   4   3   4   2
  0.8429247991   4   3   4   3
  2.1480923671   4   4   1   1
  2.0297432272   4   4   2   2
  -0.0067112411   4   4   3   1
  0.0000001055   4   4   3   2
  2.3547049969   4   4   3   3
  -0.0000000759   4   4   4   1
  0.0364208625   4   4   4   2
  -0.0000000118   4   4   4   3
  2.4697303580   4   4   4   4
  0.0000000318   5   1   2   1
  -0.3527156186   5   1   2   2
  0.0980247124   5   1   3   1
  0.0000000861   5   1   3   2
  0.3527156065   5   1   3   3
  -0.0321303067   5   1   4   2
  0.1872895915   5   1   4   4
  0.4347275629   5   1   5   1
  0.0000000498   5   2   1   1
  -0.5266048568   5   2   2   1
  0.0000001285   5   2   3   1
  -0.0128575304   5   2   3   2
  0.0000000181   5   2   3   3
  -0.0321303084   5   2   4   1
  -0.0000000912   5   2   4   2
  0.0469807878   5   2   4   3
  0.0000000158   5   2   4   4
  0.8429247913   5   2   5   2
  0.1534881522   5   3   1   1
  0.0000001285   5   3   2   1
  0.0556744691   5   3   2   2
  0.5266048411   5   3   3   1
  0.0299594087   5   3   3   3
  -0.3280353488   5   3   4   2
  0.0000000912   5   3   4   3
  0.0485335576   5   3   4   4
  0.0321303079   5   3   5   1
  -0.0000000912   5   3   5   2
  0.5618702040   5   3   5   3
  -0.0067112417   5   4   2   1
  -0.0000001055   5   4   2   2
  -0.1624808903   5   4   3   2
  0.0000001055   5   4   3   3
  0.1872895978   5   4   4   1
  -0.0060563493   5   4   4   3
  0.0000000759   5   4   5   1
  -0.0060563444   5   4   5   2
  0.2563863431   5   4   5   4
  2.1480923791   5   5   1   1
  2.3547050144   5   5   2   2
  0.0067112461   5   5   3   1
  -0.0000001055   5   5   3   2
  2.0297432190   5   5   3   3
  0.0000000759   5   5   4   1
  0.0485335584   5   5   4   2
  -0.0000000158   5   5   4   3
  1.9569576704   5   5   4   4
  -0.1872896072   5   5   5   1
  0.0000000118   5   5   5   2
  0.0364208726   5   5   5   3
  2.4697303760   5   5   5   5
  0.4974109231   6   1   1   1
  -0.0302040071   6   1   2   2
  -0.0302040166   6   1   3   3
  0.1518889912   6   1   4   2
  -0.0000000493   6   1   4   3
  -0.0567382685   6   1   4   4
  0.0000000493   6   1   5   2
  0.1518889921   6   1   5   3
  -0.0567382562   6   1   5   5
  0.7438591082   6   1   6   1
  -0.3407940835   6   2   2   1
  -0.0000000681   6   2   2   2
  -0.1198415147   6   2   3   2
  0.0000000681   6   2   3   3
  0.1220053316   6   2   4   1
  0.0000000805   6   2   4   2
  0.3296901074   6   2   4   3
  0.0000000396   6   2   5   1
  0.3296900917   6   2   5   2
  -0.0000000805   6   2   5   3
  -0.0566582376   6   2   5   4
  0.3702000512   6   2   6   2
  -0.1198415173   6   3   2   2
  -0.3407940900   6   3   3   1
  0.0000000681   6   3   3   2
  0.1198415098   6   3   3   3
  -0.0000000396   6   3   4   1
  0.3296901059   6   3   4   2
  -0.0000000805   6   3   4   3
  -0.0566582411   6   3   4   4
  0.1220053325   6   3   5   1
  -0.0000000805   6   3   5   2
  -0.3296901011   6   3   5   3
  0.0566582346   6   3   5   5
  0.3702000675   6   3   6   3
  0.2044437665   6   4   2   1
  0.0000000563   6   4   2   2
  -0.0000000664   6   4   3   1
  0.2308409613   6   4   3   2
  -0.0000000563   6   4   3   3
  -0.2342109929   6   4   4   1
  0.0000000133   6   4   4   2
  -0.1655980951   6   4   4   3
  0.0000000736   6   4   4   4
  -0.1655980946   6   4   5   2
  -0.0000000133   6   4   5   3
  -0.1816708628   6   4   5   4
  -0.0000000736   6   4   5   5
  -0.1451491788   6   4   6   2
  0.0000000471   6   4   6   3
  0.3155223717   6   4   6   4
  0.0000000148   6   5   1   1
  0.0000000664   6   5   2   1
  0.2308409536   6   5   2   2
  0.2044437647   6   5   3   1
  -0.0000000563   6   5   3   2
  -0.2308409467   6   5   3   3
  -0.1655980906   6   5   4   2
  -0.0000000133   6   5   4   3
  -0.1816708535   6   5   4   4
  -0.2342109821   6   5   5   1
  -0.0000000133   6   5   5   2
  0.1655980938   6   5   5   3
  -0.0000000736   6   5   5   4
  0.1816708642   6   5   5   5
  0.0000000179   6   5   6   1
  -0.0000000471   6   5   6   2
  -0.1451491812   6   5   6   3
  0.3155223570   6   5   6   5
  2.5898012256   6   6   1   1
  2.0671684068   6   6   2   2
  2.0671684113   6   6   3   3
  0.0465807742   6   6   4   2
  -0.0000000151   6   6   4   3
  2.0489201426   6   6   4   4
  0.0000000132   6   6   5   1
  0.0000000151   6   6   5   2
  0.0465807737   6   6   5   3
  2.0489201422   6   6   5   5
  0.7494844446   6   6   6   1
  0.0000000132   6   6   6   5
  3.0583936903   6   6   6   6
  -0.0000001210   7   1   4   2
  -0.3728087348   7   1   4   3
  0.3728087329   7   1   5   2
  -0.0000001210   7   1   5   3
  0.3492365059   7   1   7   1
  -0.0000000116   7   2   1   1
  -0.3713061728   7   2   2   2
  0.0033273462   7   2   3   1
  0.0000002111   7   2   3   2
  0.3713061609   7   2   3   3
  -0.0000001418   7   2   4   1
  0.0121612212   7   2   4   2
  0.3607644511   7   2   4   4
  0.4368698493   7   2   5   1
  -0.0121612284   7   2   5   3
  0.0000000290   7   2   5   4
  -0.3607644693   7   2   5   5
  0.0423562837   7   2   6   3
  0.0000001112   7   2   6   4
  -0.3425461522   7   2   6   5
  0.6136524647   7   2   7   2
  -0.0033273446   7   3   2   1
  0.0000002111   7   3   2   2
  0.3713061735   7   3   3   2
  -0.0000002111   7   3   3   3
  -0.4368698540   7   3   4   1
  -0.0121612248   7   3   4   3
  0.0000000290   7   3   4   4
  -0.0000001418   7   3   5   1
  -0.0121612288   7   3   5   2
  -0.3607644583   7   3   5   4
  -0.0000000290   7   3   5   5
  -0.0423562847   7   3   6   2
  0.3425461696   7   3   6   4
  0.0000001112   7   3   6   5
  0.6136524733   7   3   7   3
  -0.0000002123   7   4   2   1
  -0.0030346410   7   4   2   2
  -0.6541071013   7   4   3   1
  0.0030346374   7   4   3   3
  0.5843872592   7   4   4   2
  0.0000000470   7   4   4   3
  -0.0213817604   7   4   4   4
  -0.0270217474   7   4   5   1
  0.0000000470   7   4   5   2
  -0.5843872521   7   4   5   3
  0.0213817595   7   4   5   5
  0.0000001503   7   4   6   2
  0.4631831636   7   4   6   3
  -0.1192297143   7   4   6   5
  -0.0041765500   7   4   7   2
  0.8913230436   7   4   7   4
  0.6541071147   7   5   2   1
  -0.0000002123   7   5   3   1
  0.0030346338   7   5   3   2
  0.0270217578   7   5   4   1
  0.0000000470   7   5   4   2
  -0.5843872674   7   5   4   3
  -0.5843872679   7   5   5   2
  -0.0000000470   7   5   5   3
  0.0213817630   7   5   5   4
  -0.4631831504   7   5   6   2
  0.0000001503   7   5   6   3
  0.1192297105   7   5   6   4
  -0.0041765573   7   5   7   3
  0.8913230537   7   5   7   5
  -0.0000000117   7   6   2   1
  0.0000000985   7   6   4   2
  0.3035137985   7   6   4   3
  -0.3035137766   7   6   5   2
  0.0000000985   7   6   5   3
  0.0000000135   7   6   6   2
  -0.2843229920   7   6   7   1
  -0.0000000136   7   6   7   5
  0.2314751248   7   6   7   6
  2.0974937905   7   7   1   1
  2.2292605910   7   7   2   2
  2.2292605827   7   7   3   3
  0.0352350353   7   7   4   2
  -0.0000000114   7   7   4   3
  2.2898128912   7   7   4   4
  0.0000000114   7   7   5   2
  0.0352350265   7   7   5   3
  2.2898128960   7   7   5   5
  -0.1633042340   7   7   6   1
  1.9785909335   7   7   6   6
  2.5134794766   7   7   7   7
  0.0000000993   8   1   2   1
  -0.0088794846   8   1   2   2
  0.1453318112   8   1   3   1
  0.0088794851   8   1   3   3
  0.0000000152   8   1   4   1
  -0.0646628510   8   1   4   2
  -0.0000000284   8   1   4   3
  -0.2291143187   8   1   4   4
  0.0423816654   8   1   5   1
  -0.0000000284   8   1   5   2
  0.0646628554   8   1   5   3
  -0.0000001750   8   1   5   4
  0.2291143241   8   1   5   5
  0.0000000884   8   1   6   2
  0.1293771847   8   1   6   3
  0.0000000488   8   1   6   4
  0.1359312571   8   1   6   5
  -0.2085549525   8   1   7   2
  0.0000001425   8   1   7   3
  -0.0252859690   8   1   7   4
  0.3657788369   8   1   8   1
  0.0000001607   8   2   1   1
  -0.0094666179   8   2   2   1
  0.0000000355   8   2   2   2
  -0.0102183817   8   2   3   2
  0.0000000495   8   2   3   3
  -0.0228357385   8   2   4   1
  0.0000001949   8   2   4   2
  0.2310558418   8   2   4   3
  0.0000000409   8   2   4   4
  -0.0000000100   8   2   5   1
  -0.2942216732   8   2   5   2
  0.0000002176   8   2   5   3
  0.0178274573   8   2   5   4
  0.0000000397   8   2   5   5
  0.0000001617   8   2   6   1
  -0.0647033611   8   2   6   2
  -0.1037854841   8   2   6   4
  -0.0000000456   8   2   6   5
  0.0000000513   8   2   6   6
  -0.2460324382   8   2   7   1
  -0.0204483097   8   2   7   3
  -0.0000000836   8   2   7   4
  0.1903701655   8   2   7   5
  0.2003017357   8   2   7   6
  0.0000000260   8   2   7   7
  -0.0000000586   8   2   8   1
  0.3548381254   8   2   8   2
  0.2352651713   8   3   1   1
  0.0723899662   8   3   2   2
  0.0094666158   8   3   3   1
  0.0519532062   8   3   3   3
  -0.0000000100   8   3   4   1
  0.2086769357   8   3   4   2
  -0.0000002482   8   3   4   3
  0.0411653627   8   3   4   4
  0.0228357437   8   3   5   1
  0.0000002256   8   3   5   2
  0.1455111010   8   3   5   3
  0.0768202882   8   3   5   5
  0.2366329935   8   3   6   1
  0.0647033697   8   3   6   3
  -0.0000000456   8   3   6   4
  0.1037854853   8   3   6   5
  0.0751147407   8   3   6   6
  0.0000001681   8   3   7   1
  -0.0204483110   8   3   7   2
  0.1903701665   8   3   7   4
  0.0000000836   8   3   7   5
  -0.0000001368   8   3   7   6
  0.0381029893   8   3   7   7
  0.0734660827   8   3   8   1
  0.0000000653   8   3   8   2
  0.4504252436   8   3   8   3
  0.0000000304   8   4   1   1
  -0.0248067682   8   4   2   1
  0.0000002431   8   4   2   2
  -0.0000000109   8   4   3   1
  0.2603726535   8   4   3   2
  -0.0000002817   8   4   3   3
  -0.3138934321   8   4   4   1
  -0.0000000126   8   4   4   2
  -0.0379949464   8   4   4   3
  -0.0000000781   8   4   4   4
  -0.0000002397   8   4   5   1
  0.0018823398   8   4   5   2
  0.0000000120   8   4   5   3
  -0.1044169753   8   4   5   4
  0.0000000607   8   4   6   1
  -0.1385373092   8   4   6   2
  -0.0000000608   8   4   6   3
  0.1871856767   8   4   6   4
  0.0000001429   8   4   6   5
  0.0000000390   8   4   6   6
  0.0186779482   8   4   7   1
  -0.0000001279   8   4   7   2
  0.2911581032   8   4   7   3
  -0.0000000152   8   4   7   4
  0.0199155828   8   4   7   5
  -0.0152062279   8   4   7   6
  -0.0000001206   8   4   7   7
  -0.0000000724   8   4   8   1
  -0.0105744771   8   4   8   2
  0.0000000229   8   4   8   3
  0.2399708569   8   4   8   4
  0.0846455696   8   5   1   1
  -0.0000000109   8   5   2   1
  -0.3140619211   8   5   2   2
  0.0248067752   8   5   3   1
  0.0000002624   8   5   3   2
  0.2066833824   8   5   3   3
  -0.0000002397   8   5   4   1
  0.0352312700   8   5   4   2
  -0.0000000108   8   5   4   3
  -0.0088821169   8   5   4   4
  0.3138934359   8   5   5   1
  -0.0000000139   8   5   5   2
  -0.0008813223   8   5   5   3
  -0.0000000374   8   5   5   4
  -0.2177160718   8   5   5   5
  0.1691403667   8   5   6   1
  -0.0000000608   8   5   6   2
  0.1385373076   8   5   6   3
  0.0000001429   8   5   6   4
  -0.1871856644   8   5   6   5
  0.1087663374   8   5   6   6
  0.2911581021   8   5   7   2
  0.0000001279   8   5   7   3
  0.0199155813   8   5   7   4
  0.0000000152   8   5   7   5
  -0.3361356952   8   5   7   7
  0.0644957690   8   5   8   1
  0.0000000336   8   5   8   2
  0.0435904104   8   5   8   3
  0.0000001208   8   5   8   4
  0.5766461499   8   5   8   5
  0.0000002195   8   6   2   1
  -0.0853550815   8   6   2   2
  0.3212207874   8   6   3   1
  0.0853550859   8   6   3   3
  0.0000000564   8   6   4   1
  -0.2424227296   8   6   4   2
  -0.0000001065   8   6   4   3
  0.1390998949   8   6   4   4
  0.1571641866   8   6   5   1
  -0.0000001065   8   6   5   2
  0.2424227262   8   6   5   3
  0.0000001062   8   6   5   4
  -0.1390998890   8   6   5   5
  -0.0000001159   8   6   6   2
  -0.1696338776   8   6   6   3
  0.0000000284   8   6   6   4
  0.0791394898   8   6   6   5
  0.1920214842   8   6   7   2
  -0.0000001312   8   6   7   3
  -0.1965395099   8   6   7   4
  0.0000000705   8   6   7   5
  -0.0270230504   8   6   8   1
  -0.0000001029   8   6   8   2
  0.1289880945   8   6   8   3
  -0.0000000665   8   6   8   4
  0.0592643946   8   6   8   5
  0.3398602519   8   6   8   6
  -0.4315065763   8   7   2   1
  0.0000002948   8   7   3   1
  -0.0206053545   8   7   3   2
  0.0040546365   8   7   4   1
  -0.0000001696   8   7   4   2
  0.3862714527   8   7   4   3
  0.3862714530   8   7   5   2
  0.0000001696   8   7   5   3
  0.0039637810   8   7   5   4
  0.3077964610   8   7   6   2
  -0.0000002103   8   7   6   3
  -0.0958465636   8   7   6   4
  0.0000000344   8   7   6   5
  -0.0000000191   8   7   7   2
  -0.0279880792   8   7   7   3
  -0.0000002109   8   7   7   4
  -0.5880129809   8   7   7   5
  -0.1246089466   8   7   8   2
  -0.0000000994   8   7   8   3
  -0.0277303475   8   7   8   4
  -0.0000000311   8   7   8   5
  0.3894571513   8   7   8   7
  2.2379502027   8   8   1   1
  -0.0000000688   8   8   2   1
  2.0924992946   8   8   2   2
  0.0862991744   8   8   3   1
  0.0000000805   8   8   3   2
  2.2103734488   8   8   3   3
  -0.0000000954   8   8   4   1
  0.0428370748   8   8   4   2
  1.9559709369   8   8   4   4
  0.0850033011   8   8   5   1
  0.0000000519   8   8   5   2
  0.0984179532   8   8   5   3
  0.0000001189   8   8   5   4
  2.2874984520   8   8   5   5
  0.1049167619   8   8   6   1
  -0.0000001104   8   8   6   2
  0.1384128355   8   8   6   3
  -0.0000000448   8   8   6   4
  0.0399119232   8   8   6   5
  2.1469654152   8   8   6   6
  -0.1123623207   8   8   7   2
  -0.0000000896   8   8   7   3
  -0.0259038648   8   8   7   4
  -0.0000000291   8   8   7   5
  2.0075290893   8   8   7   7
  0.2908353111   8   8   8   1
  0.0000000898   8   8   8   2
  0.1314323647   8   8   8   3
  0.0000000984   8   8   8   4
  0.2743539524   8   8   8   5
  -0.0607579402   8   8   8   6
  0.0000000337   8   8   8   7
  2.5321802202   8   8   8   8
  0.1453318161   9   1   2   1
  -0.0000000993   9   1   3   1
  -0.0088794861   9   1   3   2
  0.0423816670   9   1   4   1
  0.0000000284   9   1   4   2
  -0.0646628557   9   1   4   3
  0.0000001750   9   1   4   4
  -0.0000000152   9   1   5   1
  -0.0646628552   9   1   5   2
  -0.0000000284   9   1   5   3
  -0.2291143184   9   1   5   4
  -0.0000001750   9   1   5   5
  0.1293771830   9   1   6   2
  -0.0000000884   9   1   6   3
  0.1359312622   9   1   6   4
  -0.0000000488   9   1   6   5
  0.0000001425   9   1   7   2
  0.2085549535   9   1   7   3
  0.0252859732   9   1   7   5
  -0.0734660806   9   1   8   2
  -0.0000000586   9   1   8   3
  -0.0644957675   9   1   8   4
  -0.0000000724   9   1   8   5
  -0.0271360259   9   1   8   7
  -0.0000004307   9   1   8   8
  0.3657788385   9   1   9   1
  0.2352651673   9   2   1   1
  0.0519532056   9   2   2   2
  -0.0094666206   9   2   3   1
  0.0723899625   9   2   3   3
  0.0000000100   9   2   4   1
  0.1455111020   9   2   4   2
  -0.0000002256   9   2   4   3
  0.0768202794   9   2   4   4
  -0.0228357397   9   2   5   1
  0.0000002482   9   2   5   2
  0.2086769317   9   2   5   3
  0.0411653608   9   2   5   5
  0.2366329912   9   2   6   1
  -0.0647033686   9   2   6   3
  0.0000000456   9   2   6   4
  -0.1037854808   9   2   6   5
  0.0751147397   9   2   6   6
  0.0000001681   9   2   7   1
  0.0204483055   9   2   7   2
  -0.1903701632   9   2   7   4
  -0.0000000836   9   2   7   5
  -0.0000001368   9   2   7   6
  0.0381029836   9   2   7   7
  -0.0734660807   9   2   8   1
  0.0000000653   9   2   8   2
  0.0874021024   9   2   8   3
  0.0000000245   9   2   8   4
  0.0384226314   9   2   8   5
  -0.1289880946   9   2   8   6
  0.0000000994   9   2   8   7
  0.0973746271   9   2   8   8
  0.0000000586   9   2   9   1
  0.4504252407   9   2   9   2
  -0.0000001607   9   3   1   1
  -0.0094666180   9   3   2   1
  -0.0000000495   9   3   2   2
  -0.0102183784   9   3   3   2
  -0.0000000355   9   3   3   3
  -0.0228357419   9   3   4   1
  -0.0000002176   9   3   4   2
  -0.2942216751   9   3   4   3
  -0.0000000397   9   3   4   4
  -0.0000000100   9   3   5   1
  0.2310558405   9   3   5   2
  -0.0000001949   9   3   5   3
  0.0178274587   9   3   5   4
  -0.0000000409   9   3   5   5
  -0.0000001617   9   3   6   1
  -0.0647033714   9   3   6   2
  -0.1037854831   9   3   6   4
  -0.0000000456   9   3   6   5
  -0.0000000513   9   3   6   6
  0.2460324396   9   3   7   1
  -0.0204483091   9   3   7   3
  -0.0000000836   9   3   7   4
  0.1903701650   9   3   7   5
  -0.2003017406   9   3   7   6
  -0.0000000260   9   3   7   7
  -0.0000000586   9   3   8   1
  0.0081850137   9   3   8   2
  -0.0000000653   9   3   8   3
  0.0157422525   9   3   8   4
  -0.0000000319   9   3   8   5
  -0.0000001029   9   3   8   6
  -0.1246089464   9   3   8   7
  -0.0000000665   9   3   8   8
  -0.0734660803   9   3   9   1
  -0.0000000653   9   3   9   2
  0.3548381284   9   3   9   3
  0.0846455806   9   4   1   1
  0.0000000109   9   4   2   1
  0.2066833898   9   4   2   2
  -0.0248067687   9   4   3   1
  -0.0000002624   9   4   3   2
  -0.3140619108   9   4   3   3
  0.0000002397   9   4   4   1
  -0.0008813271   9   4   4   2
  0.0000000139   9   4   4   3
  -0.2177160610   9   4   4   4
  -0.3138934280   9   4   5   1
  0.0000000108   9   4   5   2
  0.0352312753   9   4   5   3
  0.0000000374   9   4   5   4
  -0.0088821060   9   4   5   5
  0.1691403725   9   4   6   1
  0.0000000608   9   4   6   2
  -0.1385373089   9   4   6   3
  -0.0000001429   9   4   6   4
  0.1871856739   9   4   6   5
  0.1087663324   9   4   6   6
  -0.2911581015   9   4   7   2
  -0.0000001279   9   4   7   3
  -0.0199155881   9   4   7   4
  -0.0000000152   9   4   7   5
  -0.3361356874   9   4   7   7
  -0.0644957665   9   4   8   1
  0.0000000319   9   4   8   2
  0.0384226326   9   4   8   3
  0.0000001208   9   4   8   4
  0.0987023079   9   4   8   5
  -0.0592643964   9   4   8   6
  0.0000000311   9   4   8   7
  0.0783568305   9   4   8   8
  0.0000000724   9   4   9   1
  0.0435904093   9   4   9   2
  -0.0000000336   9   4   9   3
  0.5766461450   9   4   9   4
  -0.0000000304   9   5   1   1
  -0.0248067637   9   5   2   1
  0.0000002817   9   5   2   2
  -0.0000000109   9   5   3   1
  0.2603726538   9   5   3   2
  -0.0000002431   9   5   3   3
  -0.3138934322   9   5   4   1
  -0.0000000120   9   5   4   2
  0.0018823360   9   5   4   3
  -0.0000002397   9   5   5   1
  -0.0379949501   9   5   5   2
  0.0000000126   9   5   5   3
  -0.1044169759   9   5   5   4
  0.0000000781   9   5   5   5
  -0.0000000607   9   5   6   1
  -0.1385373114   9   5   6   2
  -0.0000000608   9   5   6   3
  0.1871856782   9   5   6   4
  0.0000001429   9   5   6   5
  -0.0000000390   9   5   6   6
  -0.0186779473   9   5   7   1
  -0.0000001279   9   5   7   2
  0.2911581041   9   5   7   3
  -0.0000000152   9   5   7   4
  0.0199155884   9   5   7   5
  0.0152062284   9   5   7   6
  0.0000001206   9   5   7   7
  -0.0000000724   9   5   8   1
  0.0157422513   9   5   8   2
  -0.0000000245   9   5   8   3
  0.2379729806   9   5   8   4
  -0.0000001208   9   5   8   5
  -0.0000000665   9   5   8   6
  -0.0277303512   9   5   8   7
  -0.0000000281   9   5   8   8
  -0.0644957667   9   5   9   1
  -0.0000000229   9   5   9   2
  -0.0105744747   9   5   9   3
  -0.0000001208   9   5   9   4
  0.2399708576   9   5   9   5
  0.3212207927   9   6   2   1
  -0.0000002195   9   6   3   1
  -0.0853550888   9   6   3   2
  0.1571641929   9   6   4   1
  0.0000001065   9   6   4   2
  -0.2424227335   9   6   4   3
  -0.0000001062   9   6   4   4
  -0.0000000564   9   6   5   1
  -0.2424227313   9   6   5   2
  -0.0000001065   9   6   5   3
  0.1390998957   9   6   5   4
  0.0000001062   9   6   5   5
  -0.1696338724   9   6   6   2
  0.0000001159   9   6   6   3
  0.0791394808   9   6   6   4
  -0.0000000284   9   6   6   5
  -0.0000001312   9   6   7   2
  -0.1920214896   9   6   7   3
  0.0000000705   9   6   7   4
  0.1965395170   9   6   7   5
  -0.1289880926   9   6   8   2
  -0.0000001029   9   6   8   3
  -0.0592643972   9   6   8   4
  -0.0000000665   9   6   8   5
  -0.1200844436   9   6   8   7
  0.0000000900   9   6   8   8
  -0.0270230486   9   6   9   1
  0.0000001029   9   6   9   2
  -0.1289880940   9   6   9   3
  0.0000000665   9   6   9   4
  -0.0592643958   9   6   9   5
  0.3398602530   9   6   9   6
  0.0000002948   9   7   2   1
  0.0206053574   9   7   2   2
  0.4315065696   9   7   3   1
  -0.0206053532   9   7   3   3
  -0.3862714485   9   7   4   2
  -0.0000001696   9   7   4   3
  -0.0039637822   9   7   4   4
  -0.0040546400   9   7   5   1
  -0.0000001696   9   7   5   2
  0.3862714437   9   7   5   3
  0.0039637864   9   7   5   5
  -0.0000002103   9   7   6   2
  -0.3077964681   9   7   6   3
  0.0000000344   9   7   6   4
  0.0958465646   9   7   6   5
  -0.0279880829   9   7   7   2
  0.0000000191   9   7   7   3
  -0.5880129765   9   7   7   4
  0.0000002109   9   7   7   5
  0.0271360269   9   7   8   1
  0.0000000994   9   7   8   2
  -0.1246089480   9   7   8   3
  0.0000000311   9   7   8   4
  -0.0277303478   9   7   8   5
  0.1200844392   9   7   8   6
  0.0227244903   9   7   8   8
  0.1246089450   9   7   9   2
  0.0000000994   9   7   9   3
  0.0277303442   9   7   9   4
  0.0000000311   9   7   9   5
  0.3894571497   9   7   9   7
  -0.0862991774   9   8   2   1
  0.0000000805   9   8   2   2
  -0.0000000688   9   8   3   1
  0.0589370837   9   8   3   2
  -0.0000000805   9   8   3   3
  -0.0850033064   9   8   4   1
  0.0000000290   9   8   4   2
  0.0277904379   9   8   4   3
  0.0000001189   9   8   4   4
  -0.0000000954   9   8   5   1
  0.0277904426   9   8   5   2
  -0.0000000290   9   8   5   3
  0.1657637492   9   8   5   4
  -0.0000001189   9   8   5   5
  -0.1384128325   9   8   6   2
  -0.0000001104   9   8   6   3
  -0.0399119184   9   8   6   4
  -0.0000000448   9   8   6   5
  0.0000000896   9   8   7   2
  -0.1123623102   9   8   7   3
  0.0000000291   9   8   7   4
  -0.0259038703   9   8   7   5
  -0.0000004307   9   8   8   1
  0.0170288634   9   8   8   2
  -0.0000000116   9   8   8   3
  0.0979985640   9   8   8   4
  -0.0000000351   9   8   8   5
  0.0000000900   9   8   8   6
  0.0227244920   9   8   8   7
  -0.2908353056   9   8   9   1
  0.0000000116   9   8   9   2
  0.0170288664   9   8   9   3
  0.0000000351   9   8   9   4
  0.0979985632   9   8   9   5
  0.0607579355   9   8   9   6
  -0.0000000337   9   8   9   7
  0.2520399081   9   8   9   8
  2.2379502026   9   9   1   1
  0.0000000688   9   9   2   1
  2.2103734619   9   9   2   2
  -0.0862991658   9   9   3   1
  -0.0000000805   9   9   3   2
  2.0924992891   9   9   3   3
  0.0000000954   9   9   4   1
  0.0984179427   9   9   4   2
  -0.0000000519   9   9   4   3
  2.2874984446   9   9   4   4
  -0.0850033081   9   9   5   1
  0.0428370809   9   9   5   3
  -0.0000001189   9   9   5   4
  1.9559709475   9   9   5   5
  0.1049167566   9   9   6   1
  0.0000001104   9   9   6   2
  -0.1384128424   9   9   6   3
  0.0000000448   9   9   6   4
  -0.0399119093   9   9   6   5
  2.1469654117   9   9   6   6
  0.1123623046   9   9   7   2
  0.0000000896   9   9   7   3
  0.0259038537   9   9   7   4
  0.0000000291   9   9   7   5
  2.0075290953   9   9   7   7
  -0.2908353041   9   9   8   1
  0.0000000665   9   9   8   2
  0.0973746280   9   9   8   3
  0.0000000281   9   9   8   4
  0.0783568190   9   9   8   5
  0.0607579393   9   9   8   6
  -0.0000000337   9   9   8   7
  2.0281003924   9   9   8   8
  0.0000004307   9   9   9   1
  0.1314323649   9   9   9   2
  -0.0000000898   9   9   9   3
  0.2743539542   9   9   9   4
  -0.0000000984   9   9   9   5
  -0.0000000900   9   9   9   6
  -0.0227244864   9   9   9   7
  2.5321802124   9   9   9   9
  0.0564576993   10   1   1   1
  -0.1051941362   10   1   2   2
  -0.1051941341   10   1   3   3
  -0.1177509049   10   1   4   2
  0.0000000382   10   1   4   3
  -0.1249912080   10   1   4   4
  -0.0000000382   10   1   5   2
  -0.1177509012   10   1   5   3
  -0.1249912091   10   1   5   5
  0.2350750164   10   1   6   1
  0.4397094785   10   1   6   6
  -0.1926862477   10   1   7   7
  -0.0000001184   10   1   8   2
  -0.1732872716   10   1   8   3
  0.0000000344   10   1   8   4
  0.0960285428   10   1   8   5
  -0.0567984877   10   1   8   8
  -0.1732872701   10   1   9   2
  0.0000001184   10   1   9   3
  0.0960285410   10   1   9   4
  -0.0000000344   10   1   9   5
  -0.0567984918   10   1   9   9
  0.3943855069   10   1   10   1
  -0.1410164130   10   2   2   1
  0.0000000910   10   2   2   2
  0.1600469559   10   2   3   2
  -0.0000000910   10   2   3   3
  -0.1862440008   10   2   4   1
  0.0000000236   10   2   4   2
  0.0965232969   10   2   4   3
  -0.0000000604   10   2   5   1
  0.0965232970   10   2   5   2
  -0.0000000236   10   2   5   3
  0.0594225421   10   2   5   4
  -0.0682180213   10   2   6   2
  0.0985511858   10   2   6   4
  0.0000000320   10   2   6   5
  0.0588388618   10   2   7   3
  0.0000000714   10   2   7   4
  -0.2200548375   10   2   7   5
  -0.0000001330   10   2   8   1
  -0.1121831620   10   2   8   2
  -0.0000000129   10   2   8   3
  0.1691767033   10   2   8   4
  0.0000000743   10   2   8   5
  0.0000000468   10   2   8   6
  0.1422757399   10   2   8   7
  0.0000001708   10   2   8   8
  -0.1946913032   10   2   9   1
  0.0000000129   10   2   9   2
  -0.1121831618   10   2   9   3
  -0.0000000743   10   2   9   4
  0.1691767021   10   2   9   5
  0.0685413808   10   2   9   6
  -0.0000000972   10   2   9   7
  0.2140554140   10   2   9   8
  -0.0000001708   10   2   9   9
  0.3139494387   10   2   10   2
  0.1600469557   10   3   2   2
  -0.1410164101   10   3   3   1
  -0.0000000910   10   3   3   2
  -0.1600469490   10   3   3   3
  0.0000000604   10   3   4   1
  0.0965232959   10   3   4   2