 &FCI NORB= 12,NELEC= ,MS0= ,
  ORBSYM=1,2,1,4,3,2,1,4,3,2,1,2,
  ISYM=1,
 /
  -57.1852730948405536537393345   1   1   0   0
  -52.8966131183491725664680416   2   2   0   0
  4.5246583092712233664656196   3   1   0   0
  -52.2110025917437923226316343   3   3   0   0
  -51.3233777443545591268048156   4   4   0   0
  -51.2904389427603391027332691   5   5   0   0
  3.6479147350937966010064883   6   2   0   0
  -52.3155190362803494963372941   6   6   0   0
  -1.5640891730259458558549568   7   1   0   0
  3.2897364662551389358213783   7   3   0   0
  -48.8648053721427970685908804   7   7   0   0
  -2.6502138718762076052826160   8   4   0   0
  -46.4905305954647332100648782   8   8   0   0
  -2.6798762649434610949583657   9   5   0   0
  -46.5234693970590313938373583   9   9   0   0
  -0.6331048558808531900865546   10   2   0   0
  2.9483757400516124036471410   10   6   0   0
  -45.9788054050227970037667546   10   10   0   0
  0.3776325344937621064644873   11   1   0   0
  -0.7340701227567985043265253   11   3   0   0
  3.7226069538559771743280180   11   7   0   0
  -43.7966591449251154699595645   11   11   0   0
  -0.2915582794011721823324024   12   2   0   0
  1.2783367323639902579657246   12   6   0   0
  -4.2832258442775072992958485   12   10   0   0
  -46.4068026440000451771084045   12   12   0   0
  5.6391018637   1   1   1   1
  1.4937784051   2   1   2   1
  5.0155496228   2   2   1   1
  4.9240758271   2   2   2   2
  -0.7968800258   3   1   1   1
  -0.1146700687   3   1   2   2
  0.8768624246   3   1   3   1
  0.8876741886   3   2   2   1
  1.0339137561   3   2   3   2
  5.1412898407   3   3   1   1
  4.9640905503   3   3   2   2
  -0.2072781703   3   3   3   1
  5.1888194497   3   3   3   3
  0.5498258871   4   1   4   1
  0.8390968168   4   2   4   2
  0.1773359408   4   3   4   1
  0.1643404979   4   3   4   3
  5.1290336075   4   4   1   1
  4.9213025394   4   4   2   2
  -0.2781865767   4   4   3   1
  4.8250427563   4   4   3   3
  5.0882916685   4   4   4   4
  -0.7555261110   5   1   4   2
  0.6886431288   5   1   5   1
  -0.6119010595   5   2   4   1
  -0.2309249525   5   2   4   3
  0.6915011714   5   2   5   2
  -0.2404866061   5   3   4   2
  0.1876263828   5   3   5   1
  0.1688368865   5   3   5   3
  -1.6934503072   5   4   2   1
  -0.9880684802   5   4   3   2
  2.0267307919   5   4   5   4
  5.1230630077   5   5   1   1
  4.9205876011   5   5   2   2
  -0.2712224368   5   5   3   1
  4.8246603417   5   5   3   3
  5.0856818005   5   5   4   4
  5.0831596283   5   5   5   5
  -0.2571107504   6   1   2   1
  0.3581275656   6   1   3   2
  0.2935497126   6   1   5   4
  0.5622247671   6   1   6   1
  -0.6729422359   6   2   1   1
  -0.0821231168   6   2   2   2
  0.7718522176   6   2   3   1
  -0.0468185223   6   2   3   3
  -0.3261818619   6   2   4   4
  -0.3191555016   6   2   5   5
  0.7587272066   6   2   6   2
  1.4557823355   6   3   2   1
  1.0028025355   6   3   3   2
  -1.5406440032   6   3   5   4
  -0.1277612135   6   3   6   1
  1.5594915482   6   3   6   3
  -0.1939401110   6   4   4   2
  0.2111486594   6   4   5   1
  -0.0706497800   6   4   5   3
  0.2043126364   6   4   6   4
  0.1330169482   6   5   4   1
  -0.0734996684   6   5   4   3
  -0.1115663040   6   5   5   2
  0.1586394877   6   5   6   5
  5.4149809922   6   6   1   1
  4.9927119252   6   6   2   2
  -0.5337337600   6   6   3   1
  5.1685490605   6   6   3   3
  4.9773594132   6   6   4   4
  4.9730900053   6   6   5   5
  -0.3954091838   6   6   6   2
  5.3333897057   6   6   6   6
  0.2453065931   7   1   1   1
  0.0629845389   7   1   2   2
  -0.2115500486   7   1   3   1
  0.3057333199   7   1   3   3
  -0.0888492169   7   1   4   4
  -0.0890189557   7   1   5   5
  -0.0378604923   7   1   6   2
  0.2744501970   7   1   6   6
  0.3297871263   7   1   7   1
  -0.1489013157   7   2   2   1
  0.0982113956   7   2   3   2
  0.3152255068   7   2   5   4
  0.1924882192   7   2   6   1
  0.0433779756   7   2   6   3
  0.2673039256   7   2   7   2
  -0.5697471919   7   3   1   1
  -0.0780424097   7   3   2   2
  0.6287960911   7   3   3   1
  -0.1073203549   7   3   3   3
  -0.2511849260   7   3   4   4
  -0.2477302468   7   3   5   5
  0.5657964545   7   3   6   2
  -0.3055029223   7   3   6   6
  -0.1161682991   7   3   7   1
  0.5793652864   7   3   7   3
  -0.4522671523   7   4   4   1
  -0.1244214246   7   4   4   3
  0.4966081517   7   4   5   2
  -0.1327170357   7   4   6   5
  0.3763125733   7   4   7   4
  0.6221082207   7   5   4   2
  -0.5733561725   7   5   5   1
  -0.1326502753   7   5   5   3
  -0.2014595605   7   5   6   4
  0.4820870477   7   5   7   5
  0.6015067719   7   6   2   1
  0.6150086412   7   6   3   2
  -0.6805613425   7   6   5   4
  0.1575428052   7   6   6   1
  0.6484178583   7   6   6   3
  0.0245587463   7   6   7   2
  0.5183586890   7   6   7   6
  5.4149809922   7   7   1   1
  4.9927119252   7   7   2   2
  -0.5337337600   7   7   3   1
  5.1685490605   7   7   3   3
  4.9773594132   7   7   4   4
  4.9730900053   7   7   5   5
  -0.3954091838   7   7   6   2
  5.3333897057   7   7   6   6
  0.2744501970   7   7   7   1
  -0.3055029223   7   7   7   3
  5.3333897057   7   7   7   7
  0.0642464170   8   1   4   1
  -0.1241585479   8   1   4   3
  -0.0261094789   8   1   5   2
  0.1729410012   8   1   6   5
  -0.0818498061   8   1   7   4
  0.2034134614   8   1   8   1
  -0.0588430234   8   2   4   2
  0.0049680432   8   2   5   1
  0.1828099100   8   2   5   3
  -0.1960604643   8   2   6   4
  0.0321887390   8   2   7   5
  0.2797449792   8   2   8   2
  -0.3797561497   8   3   4   1
  -0.1830553767   8   3   4   3
  0.4416075375   8   3   5   2
  -0.0260668658   8   3   6   5
  0.3002481277   8   3   7   4
  0.0375315821   8   3   8   1
  0.2965351626   8   3   8   3
  0.4830751819   8   4   1   1
  0.0578449342   8   4   2   2
  -0.5634615035   8   4   3   1
  0.0309407750   8   4   3   3
  0.2111617801   8   4   4   4
  0.2040663974   8   4   5   5
  -0.5684956961   8   4   6   2
  0.3454334655   8   4   6   6
  0.0137333998   8   4   7   1
  -0.2795145898   8   4   7   3
  0.3454334655   8   4   7   7
  0.5740802250   8   4   8   4
  0.1910113070   8   5   2   1
  0.5063113114   8   5   3   2
  -0.2201388457   8   5   5   4
  0.3661490023   8   5   6   1
  0.2754568882   8   5   6   3
  0.1024253606   8   5   7   2
  0.1334676829   8   5   7   6
  0.4766280296   8   5   8   5
  -0.6221082207   8   6   4   2
  0.5733561725   8   6   5   1
  0.1326502753   8   6   5   3
  0.2014595605   8   6   6   4
  -0.4820870477   8   6   7   5
  -0.0321887390   8   6   8   2
  0.4820870477   8   6   8   6
  -0.1330169482   8   7   4   1
  0.0734996684   8   7   4   3
  0.1115663040   8   7   5   2
  -0.1586394877   8   7   6   5
  0.1327170357   8   7   7   4
  -0.1729410012   8   7   8   1
  0.0260668658   8   7   8   3
  0.1586394877   8   7   8   7
  5.1230630077   8   8   1   1
  4.9205876011   8   8   2   2
  -0.2712224368   8   8   3   1
  4.8246603417   8   8   3   3
  5.0856818005   8   8   4   4
  5.0831596283   8   8   5   5
  -0.3191555016   8   8   6   2
  4.9730900053   8   8   6   6
  -0.0890189557   8   8   7   1
  -0.2477302468   8   8   7   3
  4.9730900053   8   8   7   7
  0.2040663974   8   8   8   4
  5.0831596283   8   8   8   8
  -0.1019391746   9   1   4   2
  0.1356054072   9   1   5   1
  -0.1222292214   9   1   5   3
  0.2149019241   9   1   6   4
  -0.1447683266   9   1   7   5
  -0.2443864500   9   1   8   2
  0.1447683266   9   1   8   6
  0.2419403429   9   1   9   1
  0.0464054125   9   2   4   1
  0.1801264684   9   2   4   3
  -0.1033883220   9   2   5   2
  -0.1682029573   9   2   6   5
  -0.0051088084   9   2   7   4
  -0.2179055104   9   2   8   1
  -0.1254216276   9   2   8   3
  0.1682029573   9   2   8   7
  0.2585043876   9   2   9   2
  0.5170520648   9   3   4   2
  -0.4538219813   9   3   5   1
  -0.1887416983   9   3   5   3
  -0.0682691970   9   3   6   4
  0.3648158711   9   3   7   5
  -0.1036146697   9   3   8   2
  -0.3648158711   9   3   8   6
  -0.0013449339   9   3   9   1
  0.3350681831   9   3   9   3
  0.1700809954   9   4   2   1
  0.4940992134   9   4   3   2
  -0.1950893318   9   4   5   4
  0.3697771495   9   4   6   1
  0.2564151963   9   4   6   3
  0.1063214112   9   4   7   2
  0.1250562398   9   4   7   6
  0.4739072089   9   4   8   5
  0.4714959894   9   4   9   4
  0.4830751819   9   5   1   1
  0.0578449342   9   5   2   2
  -0.5634615035   9   5   3   1
  0.0309407750   9   5   3   3
  0.2111617801   9   5   4   4
  0.2040663974   9   5   5   5
  -0.5684956961   9   5   6   2
  0.3454334655   9   5   6   6
  0.0137333998   9   5   7   1
  -0.2795145898   9   5   7   3
  0.3454334655   9   5   7   7
  0.5740802250   9   5   8   4
  0.2040663974   9   5   8   8
  0.5740802250   9   5   9   5
  0.4522671523   9   6   4   1
  0.1244214246   9   6   4   3
  -0.4966081517   9   6   5   2
  0.1327170357   9   6   6   5
  -0.3763125733   9   6   7   4
  0.0818498061   9   6   8   1
  -0.3002481277   9   6   8   3
  -0.1327170357   9   6   8   7
  0.0051088084   9   6   9   2
  0.3763125733   9   6   9   6
  0.1939401110   9   7   4   2
  -0.2111486594   9   7   5   1
  0.0706497800   9   7   5   3
  -0.2043126364   9   7   6   4
  0.2014595605   9   7   7   5
  0.1960604643   9   7   8   2
  -0.2014595605   9   7   8   6
  -0.2149019241   9   7   9   1
  0.0682691970   9   7   9   3
  0.2043126364   9   7   9   7
  -1.6934503072   9   8   2   1
  -0.9880684802   9   8   3   2
  2.0267307919   9   8   5   4
  0.2935497126   9   8   6   1
  -1.5406440032   9   8   6   3
  0.3152255068   9   8   7   2
  -0.6805613425   9   8   7   6
  -0.2201388457   9   8   8   5
  -0.1950893318   9   8   9   4
  2.0267307919   9   8   9   8
  5.1290336075   9   9   1   1
  4.9213025394   9   9   2   2
  -0.2781865767   9   9   3   1
  4.8250427563   9   9   3   3
  5.0882916685   9   9   4   4
  5.0856818005   9   9   5   5
  -0.3261818619   9   9   6   2
  4.9773594132   9   9   6   6
  -0.0888492169   9   9   7   1
  -0.2511849260   9   9   7   3
  4.9773594132   9   9   7   7
  0.2111617801   9   9   8   4
  5.0856818005   9   9   8   8
  0.2111617801   9   9   9   5
  5.0882916685   9   9   9   9
  0.0642030042   10   1   2   1
  -0.0394342521   10   1   3   2
  0.0713754939   10   1   5   4
  -0.1119406171   10   1   6   1
  0.1863635280   10   1   6   3
  0.1581869205   10   1   7   2
  -0.0245875731   10   1   7   6
  -0.0765313199   10   1   8   5
  -0.0756491497   10   1   9   4
  0.0713754939   10   1   9   8
  0.2178896071   10   1   10   1
  0.1111274388   10   2   1   1
  0.0388374490   10   2   2   2
  -0.0789890433   10   2   3   1
  0.2334037891   10   2   3   3
  -0.1259551152   10   2   4   4
  -0.1266636781   10   2   5   5
  0.0462145005   10   2   6   2
  0.2110438610   10   2   6   6
  0.2459286634   10   2   7   1
  0.0660581363   10   2   7   3
  0.2110438610   10   2   7   7
  0.0573291081   10   2   8   4
  -0.1266636781   10   2   8   8
  0.0573291081   10   2   9   5
  -0.1259551152   10   2   9   9
  0.2627319540   10   2   10   2
  -0.0505520607   10   3   2   1
  0.3403099408   10   3   3   2
  0.1262086883   10   3   5   4
  0.3737947080   10   3   6   1
  0.1062058256   10   3   6   3
  0.2145922989   10   3   7   2
  0.3084112049   10   3   7   6
  0.1269608813   10   3   8   5
  0.1285207660   10   3   9   4
  0.1262086883   10   3   9   8
  0.0179060640   10   3   10   1
  0.4461452438   10   3   10   3
  -0.5170520648   10   4   4   2
  0.4538219813   10   4   5   1
  0.1887416983   10   4   5   3
  0.0682691970   10   4   6   4
  -0.3648158711   10   4   7   5
  0.1036146697   10   4   8   2
  0.3648158711   10   4   8   6
  0.0013449339   10   4   9   1
  -0.3350681831   10   4   9   3
  -0.0682691970   10   4   9   7
  0.3350681831   10   4   10   4
  0.3797561497   10   5   4   1
  0.1830553767   10   5   4   3
  -0.4416075375   10   5   5   2
  0.0260668658   10   5   6   5
  -0.3002481277   10   5   7   4
  -0.0375315821   10   5   8   1
  -0.2965351626   10   5   8   3
  -0.0260668658   10   5   8   7
  0.1254216276   10   5   9   2
  0.3002481277   10   5   9   6
  0.2965351626   10   5   10   5
  -0.5697471919   10   6   1   1
  -0.0780424097   10   6   2   2
  0.6287960911   10   6   3   1
  -0.1073203549   10   6   3   3
  -0.2511849260   10   6   4   4
  -0.2477302468   10   6   5   5
  0.5657964545   10   6   6   2
  -0.3055029223   10   6   6   6
  -0.1161682991   10   6   7   1
  0.5793652864   10   6   7   3
  -0.3055029223   10   6   7   7
  -0.2795145898   10   6   8   4
  -0.2477302468   10   6   8   8
  -0.2795145898   10   6   9   5
  -0.2511849260   10   6   9   9
  0.0660581363   10   6   10   2
  0.5793652864   10   6   10   6
  1.4557823355   10   7   2   1
  1.0028025355   10   7   3   2
  -1.5406440032   10   7   5   4
  -0.1277612135   10   7   6   1
  1.5594915482   10   7   6   3
  0.0433779756   10   7   7   2
  0.6484178583   10   7   7   6
  0.2754568882   10   7   8   5
  0.2564151963   10   7   9   4
  -1.5406440032   10   7   9   8
  0.1863635280   10   7   10   1
  0.1062058256   10   7   10   3
  1.5594915482   10   7   10   7
  0.2404866061   10   8   4   2
  -0.1876263828   10   8   5   1
  -0.1688368865   10   8   5   3
  0.0706497800   10   8   6   4
  0.1326502753   10   8   7   5
  -0.1828099100   10   8   8   2
  -0.1326502753   10   8   8   6
  0.1222292214   10   8   9   1
  0.1887416983   10   8   9   3
  -0.0706497800   10   8   9   7
  -0.1887416983   10   8   10   4
  0.1688368865   10   8   10   8
  -0.1773359408   10   9   4   1
  -0.1643404979   10   9   4   3
  0.2309249525   10   9   5   2
  0.0734996684   10   9   6   5
  0.1244214246   10   9   7   4
  0.1241585479   10   9   8   1
  0.1830553767   10   9   8   3
  -0.0734996684   10   9   8   7
  -0.1801264684   10   9   9   2
  -0.1244214246   10   9   9   6
  -0.1830553767   10   9   10   5
  0.1643404979   10   9   10   9
  5.1412898407   10   10   1   1
  4.9640905503   10   10   2   2
  -0.2072781703   10   10   3   1
  5.1888194497   10   10   3   3
  4.8250427563   10   10   4   4
  4.8246603417   10   10   5   5
  -0.0468185223   10   10   6   2
  5.1685490605   10   10   6   6
  0.3057333199   10   10   7   1
  -0.1073203549   10   10   7   3
  5.1685490605   10   10   7   7
  0.0309407750   10   10   8   4
  4.8246603417   10   10   8   8
  0.0309407750   10   10   9   5
  4.8250427563   10   10   9   9
  0.2334037891   10   10   10   2
  -0.1073203549   10   10   10   6
  5.1888194497   10   10   10   10
  -0.0613441707   11   1   1   1
  -0.0154681542   11   1   2   2
  0.0470992026   11   1   3   1
  -0.0676215834   11   1   3   3
  -0.0067731540   11   1   4   4
  -0.0085015040   11   1   5   5
  -0.0028837689   11   1   6   2
  -0.0075891371   11   1   6   6
  -0.0823636338   11   1   7   1
  0.1476397305   11   1   7   3
  -0.0075891371   11   1   7   7
  0.1398390423   11   1   8   4
  -0.0085015040   11   1   8   8
  0.1398390423   11   1   9   5
  -0.0067731540   11   1   9   9
  0.0309852475   11   1   10   2
  0.1476397305   11   1   10   6
  -0.0676215834   11   1   10   10
  0.1425271762   11   1   11   1
  0.0422586978   11   2   2   1
  -0.0114318352   11   2   3   2
  0.0069583784   11   2   5   4
  -0.0527877523   11   2   6   1
  0.0866399130   11   2   6   3
  0.0561736123   11   2   7   2
  0.1387881921   11   2   7   6
  -0.1768872232   11   2   8   5
  -0.1768012206   11   2   9   4
  0.0069583784   11   2   9   8
  0.0851169202   11   2   10   1
  0.1457690935   11   2   10   3
  0.0866399130   11   2   10   7
  0.1780943943   11   2   11   2
  0.1111274388   11   3   1   1
  0.0388374490   11   3   2   2
  -0.0789890433   11   3   3   1
  0.2334037891   11   3   3   3
  -0.1259551152   11   3   4   4
  -0.1266636781   11   3   5   5
  0.0462145005   11   3   6   2
  0.2110438610   11   3   6   6
  0.2459286634   11   3   7   1
  0.0660581363   11   3   7   3
  0.2110438610   11   3   7   7
  0.0573291081   11   3   8   4
  -0.1266636781   11   3   8   8
  0.0573291081   11   3   9   5
  -0.1259551152   11   3   9   9
  0.2627319540   11   3   10   2
  0.0660581363   11   3   10   6
  0.2334037891   11   3   10   10
  0.0309852475   11   3   11   1
  0.2627319540   11   3   11   3
  -0.0464054125   11   4   4   1
  -0.1801264684   11   4   4   3
  0.1033883220   11   4   5   2
  0.1682029573   11   4   6   5
  0.0051088084   11   4   7   4
  0.2179055104   11   4   8   1
  0.1254216276   11   4   8   3
  -0.1682029573   11   4   8   7
  -0.2585043876   11   4   9   2
  -0.0051088084   11   4   9   6
  -0.1254216276   11   4   10   5
  0.1801264684   11   4   10   9
  0.2585043876   11   4   11   4
  0.0588430234   11   5   4   2
  -0.0049680432   11   5   5   1
  -0.1828099100   11   5   5   3
  0.1960604643   11   5   6   4
  -0.0321887390   11   5   7   5
  -0.2797449792   11   5   8   2
  0.0321887390   11   5   8   6
  0.2443864500   11   5   9   1
  0.1036146697   11   5   9   3
  -0.1960604643   11   5   9   7
  -0.1036146697   11   5   10   4
  0.1828099100   11   5   10   8
  0.2797449792   11   5   11   5
  -0.1489013157   11   6   2   1
  0.0982113956   11   6   3   2
  0.3152255068   11   6   5   4
  0.1924882192   11   6   6   1
  0.0433779756   11   6   6   3
  0.2673039256   11   6   7   2
  0.0245587463   11   6   7   6
  0.1024253606   11   6   8   5
  0.1063214112   11   6   9   4
  0.3152255068   11   6   9   8
  0.1581869205   11   6   10   1
  0.2145922989   11   6   10   3
  0.0433779756   11   6   10   7
  0.0561736123   11   6   11   2
  0.2673039256   11   6   11   6
  -0.6729422359   11   7   1   1
  -0.0821231168   11   7   2   2
  0.7718522176   11   7   3   1
  -0.0468185223   11   7   3   3
  -0.3261818619   11   7   4   4
  -0.3191555016   11   7   5   5
  0.7587272066   11   7   6   2
  -0.3954091838   11   7   6   6
  -0.0378604923   11   7   7   1
  0.5657964545   11   7   7   3
  -0.3954091838   11   7   7   7
  -0.5684956961   11   7   8   4
  -0.3191555016   11   7   8   8
  -0.5684956961   11   7   9   5
  -0.3261818619   11   7   9   9
  0.0462145005   11   7   10   2
  0.5657964545   11   7   10   6
  -0.0468185223   11   7   10   10
  -0.0028837689   11   7   11   1
  0.0462145005   11   7   11   3
  0.7587272066   11   7   11   7
  0.6119010595   11   8   4   1
  0.2309249525   11   8   4   3
  -0.6915011714   11   8   5   2
  0.1115663040   11   8   6   5
  -0.4966081517   11   8   7   4
  0.0261094789   11   8   8   1
  -0.4416075375   11   8   8   3
  -0.1115663040   11   8   8   7
  0.1033883220   11   8   9   2
  0.4966081517   11   8   9   6
  0.4416075375   11   8   10   5
  -0.2309249525   11   8   10   9
  -0.1033883220   11   8   11   4
  0.6915011714   11   8   11   8
  -0.8390968168   11   9   4   2
  0.7555261110   11   9   5   1
  0.2404866061   11   9   5   3
  0.1939401110   11   9   6   4
  -0.6221082207   11   9   7   5
  0.0588430234   11   9   8   2
  0.6221082207   11   9   8   6
  0.1019391746   11   9   9   1
  -0.5170520648   11   9   9   3
  -0.1939401110   11   9   9   7
  0.5170520648   11   9   10   4
  -0.2404866061   11   9   10   8
  -0.0588430234   11   9   11   5
  0.8390968168   11   9   11   9
  0.8876741886   11   10   2   1
  1.0339137561   11   10   3   2
  -0.9880684802   11   10   5   4
  0.3581275656   11   10   6   1
  1.0028025355   11   10   6   3
  0.0982113956   11   10   7   2
  0.6150086412   11   10   7   6
  0.5063113114   11   10   8   5
  0.4940992134   11   10   9   4
  -0.9880684802   11   10   9   8
  -0.0394342521   11   10   10   1
  0.3403099408   11   10   10   3
  1.0028025355   11   10   10   7
  -0.0114318352   11   10   11   2
  0.0982113956   11   10   11   6
  1.0339137561   11   10   11   10
  5.0155496228   11   11   1   1
  4.9240758271   11   11   2   2
  -0.1146700687   11   11   3   1
  4.9640905503   11   11   3   3
  4.9213025394   11   11   4   4
  4.9205876011   11   11   5   5
  -0.0821231168   11   11   6   2
  4.9927119252   11   11   6   6
  0.0629845389   11   11   7   1
  -0.0780424097   11   11   7   3
  4.9927119252   11   11   7   7
  0.0578449342   11   11   8   4
  4.9205876011   11   11   8   8
  0.0578449342   11   11   9   5
  4.9213025394   11   11   9   9
  0.0388374490   11   11   10   2
  -0.0780424097   11   11   10   6
  4.9640905503   11   11   10   10
  -0.0154681542   11   11   11   1
  0.0388374490   11   11   11   3
  -0.0821231168   11   11   11   7
  4.9240758271   11   11   11   11
  0.0783260022   12   1   2   1
  -0.0035768644   12   1   3   2
  -0.0337837232   12   1   5   4
  -0.0727921203   12   1   6   1
  0.1187245440   12   1   6   3
  0.0484086487   12   1   7   2
  -0.1427530747   12   1   7   6
  0.1061980568   12   1   8   5
  0.1057805046   12   1   9   4
  -0.0337837232   12   1   9   8
  0.0896267632   12   1   10   1
  -0.1541602387   12   1   10   3
  0.1187245440   12   1   10   7
  -0.1086806120   12   1   11   2
  0.0484086487   12   1   11   6
  -0.0035768644   12   1   11   10
  0.1840058096   12   1   12   1
  0.0613441707   12   2   1   1
  0.0154681542   12   2   2   2
  -0.0470992026   12   2   3   1
  0.0676215834   12   2   3   3
  0.0067731540   12   2   4   4
  0.0085015040   12   2   5   5
  0.0028837689   12   2   6   2
  0.0075891371   12   2   6   6
  0.0823636338   12   2   7   1
  -0.1476397305   12   2   7   3
  0.0075891371   12   2   7   7
  -0.1398390423   12   2   8   4
  0.0085015040   12   2   8   8
  -0.1398390423   12   2   9   5
  0.0067731540   12   2   9   9
  -0.0309852475   12   2   10   2
  -0.1476397305   12   2   10   6
  0.0676215834   12   2   10   10
  -0.1425271762   12   2   11   1
  -0.0309852475   12   2   11   3
  0.0028837689   12   2   11   7
  0.0154681542   12   2   11   11
  0.1425271762   12   2   12   2
  -0.0642030042   12   3   2   1
  0.0394342521   12   3   3   2
  -0.0713754939   12   3   5   4
  0.1119406171   12   3   6   1
  -0.1863635280   12   3   6   3
  -0.1581869205   12   3   7   2
  0.0245875731   12   3   7   6
  0.0765313199   12   3   8   5
  0.0756491497   12   3   9   4
  -0.0713754939   12   3   9   8
  -0.2178896071   12   3   10   1
  -0.0179060640   12   3   10   3
  -0.1863635280   12   3   10   7
  -0.0851169202   12   3   11   2
  -0.1581869205   12   3   11   6
  0.0394342521   12   3   11   10
  -0.0896267632   12   3   12   1
  0.2178896071   12   3   12   3
  -0.1019391746   12   4   4   2
  0.1356054072   12   4   5   1
  -0.1222292214   12   4   5   3
  0.2149019241   12   4   6   4
  -0.1447683266   12   4   7   5
  -0.2443864500   12   4   8   2
  0.1447683266   12   4   8   6
  0.2419403429   12   4   9   1
  -0.0013449339   12   4   9   3
  -0.2149019241   12   4   9   7
  0.0013449339   12   4   10   4
  0.1222292214   12   4   10   8
  0.2443864500   12   4   11   5
  0.1019391746   12   4   11   9
  0.2419403429   12   4   12   4
  0.0642464170   12   5   4   1
  -0.1241585479   12   5   4   3
  -0.0261094789   12   5   5   2
  0.1729410012   12   5   6   5
  -0.0818498061   12   5   7   4
  0.2034134614   12   5   8   1
  0.0375315821   12   5   8   3
  -0.1729410012   12   5   8   7
  -0.2179055104   12   5   9   2
  0.0818498061   12   5   9   6
  -0.0375315821   12   5   10   5
  0.1241585479   12   5   10   9
  0.2179055104   12   5   11   4
  0.0261094789   12   5   11   8
  0.2034134614   12   5   12   5
  -0.2453065931   12   6   1   1
  -0.0629845389   12   6   2   2
  0.2115500486   12   6   3   1
  -0.3057333199   12   6   3   3
  0.0888492169   12   6   4   4
  0.0890189557   12   6   5   5
  0.0378604923   12   6   6   2
  -0.2744501970   12   6   6   6
  -0.3297871263   12   6   7   1
  0.1161682991   12   6   7   3
  -0.2744501970   12   6   7   7
  -0.0137333998   12   6   8   4
  0.0890189557   12   6   8   8
  -0.0137333998   12   6   9   5
  0.0888492169   12   6   9   9
  -0.2459286634   12   6   10   2
  0.1161682991   12   6   10   6
  -0.3057333199   12   6   10   10
  0.0823636338   12   6   11   1
  -0.2459286634   12   6   11   3
  0.0378604923   12   6   11   7
  -0.0629845389   12   6   11   11
  -0.0823636338   12   6   12   2
  0.3297871263   12   6   12   6
  0.2571107504   12   7   2   1
  -0.3581275656   12   7   3   2
  -0.2935497126   12   7   5   4
  -0.5622247671   12   7   6   1
  0.1277612135   12   7   6   3
  -0.1924882192   12   7   7   2
  -0.1575428052   12   7   7   6
  -0.3661490023   12   7   8   5
  -0.3697771495   12   7   9   4
  -0.2935497126   12   7   9   8
  0.1119406171   12   7   10   1
  -0.3737947080   12   7   10   3
  0.1277612135   12   7   10   7
  0.0527877523   12   7   11   2
  -0.1924882192   12   7   11   6
  -0.3581275656   12   7   11   10
  0.0727921203   12   7   12   1
  -0.1119406171   12   7   12   3
  0.5622247671   12   7   12   7
  -0.7555261110   12   8   4   2
  0.6886431288   12   8   5   1
  0.1876263828   12   8   5   3
  0.2111486594   12   8   6   4
  -0.5733561725   12   8   7   5
  0.0049680432   12   8   8   2
  0.5733561725   12   8   8   6
  0.1356054072   12   8   9   1
  -0.4538219813   12   8   9   3
  -0.2111486594   12   8   9   7
  0.4538219813   12   8   10   4
  -0.1876263828   12   8   10   8
  -0.0049680432   12   8   11   5
  0.7555261110   12   8   11   9
  0.1356054072   12   8   12   4
  0.6886431288   12   8   12   8
  0.5498258871   12   9   4   1
  0.1773359408   12   9   4   3
  -0.6119010595   12   9   5   2
  0.1330169482   12   9   6   5
  -0.4522671523   12   9   7   4
  0.0642464170   12   9   8   1
  -0.3797561497   12   9   8   3
  -0.1330169482   12   9   8   7
  0.0464054125   12   9   9   2
  0.4522671523   12   9   9   6
  0.3797561497   12   9   10   5
  -0.1773359408   12   9   10   9
  -0.0464054125   12   9   11   4
  0.6119010595   12   9   11   8
  0.0642464170   12   9   12   5
  0.5498258871   12   9   12   9
  0.7968800258   12   10   1   1
  0.1146700687   12   10   2   2
  -0.8768624246   12   10   3   1
  0.2072781703   12   10   3   3
  0.2781865767   12   10   4   4
  0.2712224368   12   10   5   5
  -0.7718522176   12   10   6   2
  0.5337337600   12   10   6   6
  0.2115500486   12   10   7   1
  -0.6287960911   12   10   7   3
  0.5337337600   12   10   7   7
  0.5634615035   12   10   8   4
  0.2712224368   12   10   8   8
  0.5634615035   12   10   9   5
  0.2781865767   12   10   9   9
  0.0789890433   12   10   10   2
  -0.6287960911   12   10   10   6
  0.2072781703   12   10   10   10
  -0.0470992026   12   10   11   1
  0.0789890433   12   10   11   3
  -0.7718522176   12   10   11   7
  0.1146700687   12   10   11   11
  0.0470992026   12   10   12   2
  -0.2115500486   12   10   12   6
  0.8768624246   12   10   12   10
  -1.4937784051   12   11   2   1
  -0.8876741886   12   11   3   2
  1.6934503072   12   11   5   4
  0.2571107504   12   11   6   1
  -1.4557823355   12   11   6   3
  0.1489013157   12   11   7   2
  -0.6015067719   12   11   7   6
  -0.1910113070   12   11   8   5
  -0.1700809954   12   11   9   4
  1.6934503072   12   11   9   8
  -0.0642030042   12   11   10   1
  0.0505520607   12   11   10   3
  -1.4557823355   12   11   10   7
  -0.0422586978   12   11   11   2
  0.1489013157   12   11   11   6
  -0.8876741886   12   11   11   10
  -0.0783260022   12   11   12   1
  0.0642030042   12   11   12   3
  -0.2571107504   12   11   12   7
  1.4937784051   12   11   12   11
  5.6391018637   12   12   1   1
  5.0155496228   12   12   2   2
  -0.7968800258   12   12   3   1
  5.1412898407   12   12   3   3
  5.1290336075   12   12   4   4
  5.1230630077   12   12   5   5
  -0.6729422359   12   12   6   2
  5.4149809922   12   12   6   6
  0.2453065931   12   12   7   1
  -0.5697471919   12   12   7   3
  5.4149809922   12   12   7   7
  0.4830751819   12   12   8   4
  5.1230630077   12   12   8   8
  0.4830751819   12   12   9   5
  5.1290336075   12   12   9   9
  0.1111274388   12   12   10   2
  -0.5697471919   12   12   10   6
  5.1412898407   12   12   10   10
  -0.0613441707   12   12   11   1
  0.1111274388   12   12   11   3
  -0.6729422359   12   12   11   7
  5.0155496228   12   12   11   11
  0.0613441707   12   12   12   2
  -0.2453065931   12   12   12   6
  0.7968800258   12   12   12   10
  5.6391018637   12   12   12   12
  297.6416485434718879   0   0   0   0
